# vtk DataFile Version 2.0
Pressure Field Data 
ASCII 
DATASET UNSTRUCTURED_GRID 

POINTS 1089 float 

    0.0000000000000000E+00     0.0000000000000000E+00     0.0000000000000000E+00 
    1.0000000000000000E+00     0.0000000000000000E+00     0.0000000000000000E+00 
    1.0000000000000000E+00     1.0000000000000000E+00     0.0000000000000000E+00 
    0.0000000000000000E+00     1.0000000000000000E+00     0.0000000000000000E+00 
    3.1249999999941821E-02     0.0000000000000000E+00     0.0000000000000000E+00 
    6.2499999999872928E-02     0.0000000000000000E+00     0.0000000000000000E+00 
    9.3749999999823030E-02     0.0000000000000000E+00     0.0000000000000000E+00 
    1.2499999999977310E-01     0.0000000000000000E+00     0.0000000000000000E+00 
    1.5624999999968331E-01     0.0000000000000000E+00     0.0000000000000000E+00 
    1.8749999999959341E-01     0.0000000000000000E+00     0.0000000000000000E+00 
    2.1874999999950220E-01     0.0000000000000000E+00     0.0000000000000000E+00 
    2.4999999999941089E-01     0.0000000000000000E+00     0.0000000000000000E+00 
    2.8124999999931971E-01     0.0000000000000000E+00     0.0000000000000000E+00 
    3.1249999999922851E-01     0.0000000000000000E+00     0.0000000000000000E+00 
    3.4374999999913730E-01     0.0000000000000000E+00     0.0000000000000000E+00 
    3.7499999999904610E-01     0.0000000000000000E+00     0.0000000000000000E+00 
    4.0624999999895478E-01     0.0000000000000000E+00     0.0000000000000000E+00 
    4.3749999999886358E-01     0.0000000000000000E+00     0.0000000000000000E+00 
    4.6874999999877792E-01     0.0000000000000000E+00     0.0000000000000000E+00 
    4.9999999999869210E-01     0.0000000000000000E+00     0.0000000000000000E+00 
    5.3124999999876910E-01     0.0000000000000000E+00     0.0000000000000000E+00 
    5.6249999999884603E-01     0.0000000000000000E+00     0.0000000000000000E+00 
    5.9374999999892841E-01     0.0000000000000000E+00     0.0000000000000000E+00 
    6.2499999999901090E-01     0.0000000000000000E+00     0.0000000000000000E+00 
    6.5624999999909328E-01     0.0000000000000000E+00     0.0000000000000000E+00 
    6.8749999999917577E-01     0.0000000000000000E+00     0.0000000000000000E+00 
    7.1874999999925815E-01     0.0000000000000000E+00     0.0000000000000000E+00 
    7.4999999999934064E-01     0.0000000000000000E+00     0.0000000000000000E+00 
    7.8124999999942302E-01     0.0000000000000000E+00     0.0000000000000000E+00 
    8.1249999999950551E-01     0.0000000000000000E+00     0.0000000000000000E+00 
    8.4374999999958789E-01     0.0000000000000000E+00     0.0000000000000000E+00 
    8.7499999999967026E-01     0.0000000000000000E+00     0.0000000000000000E+00 
    9.0624999999975264E-01     0.0000000000000000E+00     0.0000000000000000E+00 
    9.3749999999983513E-01     0.0000000000000000E+00     0.0000000000000000E+00 
    9.6874999999991751E-01     0.0000000000000000E+00     0.0000000000000000E+00 
    1.0000000000000000E+00     3.1249999999941821E-02     0.0000000000000000E+00 
    1.0000000000000000E+00     6.2499999999872928E-02     0.0000000000000000E+00 
    1.0000000000000000E+00     9.3749999999823030E-02     0.0000000000000000E+00 
    1.0000000000000000E+00     1.2499999999977310E-01     0.0000000000000000E+00 
    1.0000000000000000E+00     1.5624999999968331E-01     0.0000000000000000E+00 
    1.0000000000000000E+00     1.8749999999959341E-01     0.0000000000000000E+00 
    1.0000000000000000E+00     2.1874999999950220E-01     0.0000000000000000E+00 
    1.0000000000000000E+00     2.4999999999941089E-01     0.0000000000000000E+00 
    1.0000000000000000E+00     2.8124999999931971E-01     0.0000000000000000E+00 
    1.0000000000000000E+00     3.1249999999922851E-01     0.0000000000000000E+00 
    1.0000000000000000E+00     3.4374999999913730E-01     0.0000000000000000E+00 
    1.0000000000000000E+00     3.7499999999904610E-01     0.0000000000000000E+00 
    1.0000000000000000E+00     4.0624999999895478E-01     0.0000000000000000E+00 
    1.0000000000000000E+00     4.3749999999886358E-01     0.0000000000000000E+00 
    1.0000000000000000E+00     4.6874999999877792E-01     0.0000000000000000E+00 
    1.0000000000000000E+00     4.9999999999869210E-01     0.0000000000000000E+00 
    1.0000000000000000E+00     5.3124999999876910E-01     0.0000000000000000E+00 
    1.0000000000000000E+00     5.6249999999884603E-01     0.0000000000000000E+00 
    1.0000000000000000E+00     5.9374999999892841E-01     0.0000000000000000E+00 
    1.0000000000000000E+00     6.2499999999901090E-01     0.0000000000000000E+00 
    1.0000000000000000E+00     6.5624999999909328E-01     0.0000000000000000E+00 
    1.0000000000000000E+00     6.8749999999917577E-01     0.0000000000000000E+00 
    1.0000000000000000E+00     7.1874999999925815E-01     0.0000000000000000E+00 
    1.0000000000000000E+00     7.4999999999934064E-01     0.0000000000000000E+00 
    1.0000000000000000E+00     7.8124999999942302E-01     0.0000000000000000E+00 
    1.0000000000000000E+00     8.1249999999950551E-01     0.0000000000000000E+00 
    1.0000000000000000E+00     8.4374999999958789E-01     0.0000000000000000E+00 
    1.0000000000000000E+00     8.7499999999967026E-01     0.0000000000000000E+00 
    1.0000000000000000E+00     9.0624999999975264E-01     0.0000000000000000E+00 
    1.0000000000000000E+00     9.3749999999983513E-01     0.0000000000000000E+00 
    1.0000000000000000E+00     9.6874999999991751E-01     0.0000000000000000E+00 
    9.6874999999986700E-01     1.0000000000000000E+00     0.0000000000000000E+00 
    9.3749999999973976E-01     1.0000000000000000E+00     0.0000000000000000E+00 
    9.0624999999967670E-01     1.0000000000000000E+00     0.0000000000000000E+00 
    8.7499999999950118E-01     1.0000000000000000E+00     0.0000000000000000E+00 
    8.4374999999971556E-01     1.0000000000000000E+00     0.0000000000000000E+00 
    8.1249999999991318E-01     1.0000000000000000E+00     0.0000000000000000E+00 
    7.8125000000010270E-01     1.0000000000000000E+00     0.0000000000000000E+00 
    7.5000000000034706E-01     1.0000000000000000E+00     0.0000000000000000E+00 
    7.1875000000056688E-01     1.0000000000000000E+00     0.0000000000000000E+00 
    6.8750000000078049E-01     1.0000000000000000E+00     0.0000000000000000E+00 
    6.5625000000097422E-01     1.0000000000000000E+00     0.0000000000000000E+00 
    6.2500000000121403E-01     1.0000000000000000E+00     0.0000000000000000E+00 
    5.9375000000151579E-01     1.0000000000000000E+00     0.0000000000000000E+00 
    5.6250000000164757E-01     1.0000000000000000E+00     0.0000000000000000E+00 
    5.3125000000182365E-01     1.0000000000000000E+00     0.0000000000000000E+00 
    5.0000000000205946E-01     1.0000000000000000E+00     0.0000000000000000E+00 
    4.6875000000194023E-01     1.0000000000000000E+00     0.0000000000000000E+00 
    4.3750000000182099E-01     1.0000000000000000E+00     0.0000000000000000E+00 
    4.0625000000169093E-01     1.0000000000000000E+00     0.0000000000000000E+00 
    3.7500000000156092E-01     1.0000000000000000E+00     0.0000000000000000E+00 
    3.4375000000143069E-01     1.0000000000000000E+00     0.0000000000000000E+00 
    3.1250000000130068E-01     1.0000000000000000E+00     0.0000000000000000E+00 
    2.8125000000117062E-01     1.0000000000000000E+00     0.0000000000000000E+00 
    2.5000000000104050E-01     1.0000000000000000E+00     0.0000000000000000E+00 
    2.1875000000091041E-01     1.0000000000000000E+00     0.0000000000000000E+00 
    1.8750000000078040E-01     1.0000000000000000E+00     0.0000000000000000E+00 
    1.5625000000065031E-01     1.0000000000000000E+00     0.0000000000000000E+00 
    1.2500000000052031E-01     1.0000000000000000E+00     0.0000000000000000E+00 
    9.3750000000390132E-02     1.0000000000000000E+00     0.0000000000000000E+00 
    6.2500000000260125E-02     1.0000000000000000E+00     0.0000000000000000E+00 
    3.1250000000130007E-02     1.0000000000000000E+00     0.0000000000000000E+00 
    0.0000000000000000E+00     9.6874999999986700E-01     0.0000000000000000E+00 
    0.0000000000000000E+00     9.3749999999973976E-01     0.0000000000000000E+00 
    0.0000000000000000E+00     9.0624999999967670E-01     0.0000000000000000E+00 
    0.0000000000000000E+00     8.7499999999950118E-01     0.0000000000000000E+00 
    0.0000000000000000E+00     8.4374999999971556E-01     0.0000000000000000E+00 
    0.0000000000000000E+00     8.1249999999991318E-01     0.0000000000000000E+00 
    0.0000000000000000E+00     7.8125000000010270E-01     0.0000000000000000E+00 
    0.0000000000000000E+00     7.5000000000034706E-01     0.0000000000000000E+00 
    0.0000000000000000E+00     7.1875000000056688E-01     0.0000000000000000E+00 
    0.0000000000000000E+00     6.8750000000078049E-01     0.0000000000000000E+00 
    0.0000000000000000E+00     6.5625000000097422E-01     0.0000000000000000E+00 
    0.0000000000000000E+00     6.2500000000121403E-01     0.0000000000000000E+00 
    0.0000000000000000E+00     5.9375000000151579E-01     0.0000000000000000E+00 
    0.0000000000000000E+00     5.6250000000164757E-01     0.0000000000000000E+00 
    0.0000000000000000E+00     5.3125000000182365E-01     0.0000000000000000E+00 
    0.0000000000000000E+00     5.0000000000205946E-01     0.0000000000000000E+00 
    0.0000000000000000E+00     4.6875000000194023E-01     0.0000000000000000E+00 
    0.0000000000000000E+00     4.3750000000182099E-01     0.0000000000000000E+00 
    0.0000000000000000E+00     4.0625000000169093E-01     0.0000000000000000E+00 
    0.0000000000000000E+00     3.7500000000156092E-01     0.0000000000000000E+00 
    0.0000000000000000E+00     3.4375000000143069E-01     0.0000000000000000E+00 
    0.0000000000000000E+00     3.1250000000130068E-01     0.0000000000000000E+00 
    0.0000000000000000E+00     2.8125000000117062E-01     0.0000000000000000E+00 
[...]
CELL_DATA 1024 
SCALARS Pressure float 1 
LOOKUP_TABLE default 

    8.7773459755686838E-07 
    5.1886962872766881E-07 
    3.1404618813736431E-07 
    2.6736915171421795E-07 
    9.9215541582019402E-08 
    1.7924990661840213E-07 
    1.0641710645120043E-07 
    4.5737015171118823E-08 
    2.5369114044194140E-08 
    6.7341520634659792E-08 
    4.5306945676833014E-08 
    1.6021543418830945E-08 
    1.0988009376943636E-08 
    3.2022980157343783E-08 
    2.3459664144241318E-08 
    7.9279053523829274E-09 
    5.8942217694645492E-09 
    1.7593573563832489E-08 
    1.3354206329619332E-08 
    4.4481040958844684E-09 
    3.3620235294199753E-09 
    1.0141594376246975E-08 
    7.5998925626015804E-09 
    2.5070189616231871E-09 
    1.8044791711205321E-09 
    5.5062706566608860E-09 
    3.7134266844211089E-09 
    1.2032689778915771E-09 
    6.6785411939216874E-10 
    2.1180829259557707E-09 
    6.4255484375115579E-10 
    1.7158169167159204E-10 
    3.0752288752598431E-10 
    7.7698819914932132E-10 
    2.1989944976692419E-09 
    7.8978065992489632E-10 
    1.2965139695349237E-09 
    3.6838536050841711E-09 
    5.3017658419940786E-09 
    1.8529885046063982E-09 
    2.4924269222950310E-09 
    7.1430672063041434E-09 
    9.3338996963367865E-09 
    3.2623726804324911E-09 
    4.2359141908063919E-09 
    1.2062438693185261E-08 
    1.5626029603718269E-08 
    5.5333252660274938E-09 
    7.3677686225235781E-09 
    2.0521133633198164E-08 
    2.7624660062599594E-08 
    1.0152352720874461E-08 
    1.4782193757630676E-08 
    3.8578010728854487E-08 
    5.6630780421399601E-08 
    2.3475717838531036E-08 
    4.2596282049517636E-08 
    8.8509368805574258E-08 
    1.4831845673857202E-07 
    9.3100862372979057E-08 
    2.5230389627339074E-07 
    2.6368837822911446E-07 
    4.7182451693025210E-07 
    8.3036459840859708E-07 
    3.5154202657856556E-07 
    2.6164452411148002E-07 
    2.2902015134871646E-07 
    2.7457471929752050E-07 
    1.9384914677839440E-07 
    1.8290060657655781E-07 
    1.4015519688641113E-07 
    1.3392035137175379E-07 
    9.3660084865944751E-08 
    1.0609198077601162E-07 
    8.0518722184305322E-08 
    6.7117575117689801E-08 
    4.9337257804378531E-08 
    6.1640798388294671E-08 
    4.7629345783584479E-08 
    3.7049847613490616E-08 
    2.8239911511237364E-08 
    3.7047235833340825E-08 
    2.8862915874396447E-08 
    2.1678418944941907E-08 
    1.6605004996657000E-08 
    2.2359238536617115E-08 
    1.7039667442016529E-08 
    1.2536477067386087E-08 
    9.1552118993559750E-09 
    1.2556239120924823E-08 
    8.6592012750724007E-09 
    6.2439216793903213E-09 
    3.6466176354596480E-09 
    5.1627898737822281E-09 
    1.9217840576280648E-09 
    1.2442688554839543E-09 
    1.0614025830121832E-09 
    1.1852152551495437E-09 
    4.2686863026535765E-09 
    3.3598944123875568E-09 
    5.7422470116537394E-09 
    7.4394328705186530E-09 
    1.0820010769513680E-08 
    8.3118033677564290E-09 
    1.1197634715081825E-08 
    1.4558210944485422E-08 
    1.8844899526493722E-08 
    1.4573697455864260E-08 
    1.8688651790390101E-08 
    2.3939365129338822E-08 
    3.0206597380734793E-08 
    2.3914890047221568E-08 
    3.0831983133033578E-08 
    3.8172259722059343E-08 
    4.8600824345242447E-08 
    4.0371221080330241E-08 
    5.4064492104781772E-08 
    6.2594476590242115E-08 
    8.1677049560378856E-08 
    7.4450861914506991E-08 
    1.0563131846801598E-07 
    1.0772024088630434E-07 
    1.4227814403261312E-07 
    1.5354779041927731E-07 
    2.2380988231283927E-07 
    1.8424500769194732E-07 
    2.2384738806871876E-07 
    3.0889316170027749E-07 
    2.0732502960382412E-07 
    1.7143156755185934E-07 
    1.6322674647800337E-07 
    1.9179110756321893E-07 
    1.6493340818492588E-07 
    1.4690061776127111E-07 
    1.2698074620563424E-07 
    1.3573358511936515E-07 
    1.0918548268594105E-07 
    1.0693212193057383E-07 
    8.8639526887694664E-08 
    8.6995925009832054E-08 
    6.9147338310066031E-08 
    7.2795459258191003E-08 
    5.9416729202531327E-08 
    5.4973006590863099E-08 
    4.3689220508274368E-08 
    4.8218306729352900E-08 
    3.8824882017240298E-08 
    3.4600260518692638E-08 
    2.7149207692308414E-08 
    3.0870712067806311E-08 
    2.4037005521854865E-08 
    2.0908995462982916E-08 
    1.5556370304772860E-08 
    1.8059017737812044E-08 
    1.2720464010688298E-08 
    1.0845180358366041E-08 
    6.5839082783770986E-09 
    7.8437786591410708E-09 
    3.2798537006988038E-09 
    2.6179234383603978E-09 
    1.1845144322862600E-09 
    1.1015100415991130E-09 
    5.4202962721482117E-09 
    4.9437834932601621E-09 
    8.7792166097652724E-09 
    9.7944218174252085E-09 
    1.4347810274942252E-08 
    1.2819398621192329E-08 
    1.7213632803013412E-08 
    1.9218866036379428E-08 
    2.4569685477555253E-08 
    2.2145823281530946E-08 
    2.7852037572974331E-08 
    3.0595940140806799E-08 
    3.7536390596910191E-08 
    3.4642677004814715E-08 
    4.2928668474162546E-08 
    4.5678794097486070E-08 
    5.5354349597080965E-08 
    5.3246386548608943E-08 
    6.6263567219653624E-08 
    6.6903830361637190E-08 
    8.0582929653291030E-08 
    8.2719054013153520E-08 
    1.0318775720864759E-07 
    9.6352579329224419E-08 
    1.1348638751353460E-07 
    1.2745784184076819E-07 
    1.5321379712510130E-07 
    1.2997979260487638E-07 
    1.4202156956586234E-07 
    1.7398219923688701E-07 
    1.4612071166280119E-07 
    1.2742996706015947E-07 
    1.2447569773185729E-07 
    1.4138375003169487E-07 
    1.3094485196282410E-07 
    1.1744727985030928E-07 
    1.0754424116000971E-07 
    1.1709928203354827E-07 
    1.0203463769167462E-07 
    9.6109960947242390E-08 
    8.4258185144292508E-08 
    8.7280321553473428E-08 
    7.3674825321664444E-08 
    7.2742892275740045E-08 
    6.1984828815704607E-08 
    6.1546561265848898E-08 
    5.0916050492542247E-08 
    5.2158368471499905E-08 
    4.3280984255746058E-08 
    4.1648020942131742E-08 
    3.3545897787021217E-08 
    3.5282646513624949E-08 
    2.8051982232761563E-08 
    2.6402774727391637E-08 
    2.0024951070604646E-08 
    2.1463642783242642E-08 
    1.5392723942686537E-08 
    1.4240054854036677E-08 
    8.8972905410399095E-09 
    9.7210993551741232E-09 
    4.3390558576716920E-09 
    3.8640471603651472E-09 
    9.7896647082221233E-10 
    8.5563480606287712E-10 
    5.9599482319858121E-09 
    5.7430688867737834E-09 
    1.0537057208107742E-08 
    1.1068417555756827E-08 
    1.6276062269650338E-08 
    1.5472651862438042E-08 
    2.0669857698704663E-08 
    2.1681028437858796E-08 
    2.7386381067431853E-08 
    2.6261978315535867E-08 
    3.2399535573532368E-08 
    3.3500097936130235E-08 
    4.0131608087037862E-08 
    3.9251371418760894E-08 
    4.6999419541990384E-08 
    4.7382109910967807E-08 
    5.5324388321432993E-08 
    5.5820595362601061E-08 
    6.5844655786333889E-08 
    6.3966256388936493E-08 
    7.3191298522769233E-08 
    7.7071396180870833E-08 
    8.9228159270548363E-08 
    8.2674433118067048E-08 
    9.1784242284634332E-08 
    1.0156162552231104E-07 
    1.1261416529070173E-07 
    9.9518009421747933E-08 
    1.0457177751846403E-07 
    1.2017700466455256E-07 
    1.1318038832704158E-07 
    1.0208844860009475E-07 
    1.0067014569094951E-07 
    1.1120305261347330E-07 
    1.0622503536679428E-07 
    9.6965105876069269E-08 
    9.1346120668391040E-08 
    9.8899640968083680E-08 
    9.0053692575892130E-08 
    8.4331491054245866E-08 
    7.6457135437038581E-08 
    8.0464306491216664E-08 
    7.0737828298042538E-08 
    6.8187356307321256E-08 
    5.9874289362431277E-08 
    6.1280967901707062E-08 
    5.2325451403191503E-08 
    5.1754385434372996E-08 
    4.3965148761176964E-08 
    4.3972117511406617E-08 
    3.6234412615319955E-08 
    3.6568831217505260E-08 
    2.9575271350869292E-08 
    2.9072992103161555E-08 
    2.2419983098341534E-08 
    2.2960489944219564E-08 
    1.6680334051499823E-08 
    1.6194446563269627E-08 
    1.0311353896598485E-08 
    1.0679740352487199E-08 
    4.8986114418309024E-09 
    4.6861913195403448E-09 
    7.6319020200776855E-10 
    7.2470068574609359E-10 
    6.2514626409521101E-09 
    6.1163399527400242E-09 
    1.1450798591446099E-08 
    1.1741503441395351E-08 
    1.7252472897348603E-08 
    1.6842926850099693E-08 
    2.2368435304530310E-08 
    2.2838891312014498E-08 
    2.8550421949345706E-08 
    2.8101984025398485E-08 
    3.4114972450281777E-08 
    3.4428673784288322E-08 
    4.0501663927175469E-08 
    4.0470232719712340E-08 
    4.7211806274323476E-08 
    4.6774904873848888E-08 
    5.3218089322501494E-08 
    5.4347472134598507E-08 
    6.1821624364015448E-08 
    5.9746838027355254E-08 
    6.6200484208182864E-08 
    6.9477398111604527E-08 
    7.7011319453423877E-08 
    7.2320098900777174E-08 
    7.7736418345811242E-08 
    8.3933537486577392E-08 
    8.9563172918881440E-08 
    8.1984160455253474E-08 
    8.4562885998250292E-08 
    9.3106243427738822E-08 
    9.3356236043756757E-08 
    8.6467362644948587E-08 
    8.5562650581003097E-08 
    9.2264064774534582E-08 
    8.9367621245069195E-08 
    8.3184383768350467E-08 
    7.9475510525103821E-08 
    8.4890887735999954E-08 
    7.9168307545902927E-08 
    7.4660387680385021E-08 
    6.9002589692460092E-08 
    7.2571921075868795E-08 
    6.5450915440884438E-08 
    6.2765142034258703E-08 
    5.6181922026068976E-08 
    5.8095155820551969E-08 
    5.0721606986540990E-08 
    4.9442365334696758E-08 
    4.2687312416626877E-08 
    4.3476690160353104E-08 
    3.6447039399555015E-08 
    3.6012229999264622E-08 
    2.9474241053893679E-08 
    2.9672997575551363E-08 
    2.3161504384555665E-08 
    2.3100359427402628E-08 
    1.6895370944305932E-08 
    1.6896858444533092E-08 
    1.0848986472210276E-08 
    1.0848626491935520E-08 
    4.9395508967819968E-09 
    4.9794487257462383E-09 
    7.5435133573692470E-10 
    8.5802730198647481E-10 
    6.5724779247516851E-09 
    6.3962360035210719E-09 
    1.1989112003521485E-08 
    1.2231604511366012E-08 
    1.7860204517584910E-08 
    1.7573170131741922E-08 
    2.3183996165562770E-08 
    2.3477649025403780E-08 
    2.9095180426388922E-08 
    2.8850150031109467E-08 
    3.4589730927604700E-08 
    3.4712634940960163E-08 
    4.0314330580423774E-08 
    4.0405408831267753E-08 
    4.6277430102402428E-08 
    4.5863962977281403E-08 
    5.1298590356477214E-08 
    5.2154312804239544E-08 
    5.7941521034235444E-08 
    5.6522255188762305E-08 
    6.1400567703991105E-08 
    6.3489590185032696E-08 
    6.8585167239086642E-08 
    6.5758662235945731E-08 
    6.9386083521166819E-08 
    7.2951104154034274E-08 
    7.6264076103761680E-08 
    7.2052654529440596E-08 
    7.3537916897396804E-08 
    7.8197550511249769E-08 
    8.1078539299062058E-08 
    7.6958936758887708E-08 
    7.6192175124667472E-08 
    8.0273051089943537E-08 
    7.8222222852676604E-08 
    7.4336321880148770E-08 
    7.1466295456165674E-08 
    7.5024520140680451E-08 
    7.0838385317351094E-08 
    6.7701906676306822E-08 
    6.3191689155667197E-08 
    6.5856919014527227E-08 
    6.0281667419934126E-08 
    5.8095115164705224E-08 
    5.2566911434848151E-08 
    5.4301336770840036E-08 
    4.8078010482510702E-08 
    4.6745628172126241E-08 
    4.0747009464464634E-08 
    4.1740730092817979E-08 
    3.5384806002826397E-08 
    3.4661596714363752E-08 
    2.8555475135513819E-08 
    2.9074816154488203E-08 
    2.2849499122651329E-08 
    2.2473009160181578E-08 
    1.6440604194874198E-08 
    1.6727252466833264E-08 
    1.0711456578486878E-08 
    1.0470813370869192E-08 
    4.5663769840040280E-09 
    4.7952468835987805E-09 
    1.0343703515242053E-09 
    1.2760056197422265E-09 
    7.0622266489656083E-09 
    6.7930008475908243E-09 
    1.2495801970414944E-08 
    1.2797611577235191E-08 
    1.8483979578702570E-08 
    1.8154702515621457E-08 
    2.3775719960525410E-08 
    2.4116843328793325E-08 
    2.9682687610783909E-08 
    2.9356204994668289E-08 
    3.4881874564143822E-08 
    3.5156308712293305E-08 
    4.0498264600348499E-08 
    4.0323555901451702E-08 
    4.5633677493023272E-08 
    4.5652586283355390E-08 
    5.0545040501150107E-08 
    5.0742741182496776E-08 
    5.5556325399483408E-08 
    5.5082414763055199E-08 
    5.9153500659402114E-08 
    5.9953613885076196E-08 
    6.3788957186707018E-08 
    6.2632621605600292E-08 
    6.5386564349588505E-08 
    6.6898355571311241E-08 
    6.9112595890187534E-08 
    6.7285434184397030E-08 
    6.8217053324735877E-08 
    7.0277511063192299E-08 
    7.3955052483018480E-08 
    7.1970127779250048E-08 
    7.1151702928790028E-08 
    7.3181565793389858E-08 
    7.1422179757224535E-08 
    6.9408913195082023E-08 
    6.6805054332180758E-08 
    6.8741339885949881E-08 
    6.5238024569286290E-08 
    6.3430979649337083E-08 
    5.9395660953823204E-08 
    6.1034298833723133E-08 
    5.6262502224832533E-08 
    5.4816018193321048E-08 
    4.9807594163647773E-08 
    5.1053446529364388E-08 
    4.5527210432161347E-08 
    4.4477155548838798E-08 
    3.8917706184429801E-08 
    3.9787173560998368E-08 
    3.3917168643093909E-08 
    3.3205891827869927E-08 
    2.7401448183389521E-08 
    2.7981180114253212E-08 
    2.2024859481356573E-08 
    2.1548200125273698E-08 
    1.5676116323429246E-08 
    1.6078169746969184E-08 
    1.0158614806993205E-08 
    9.8040022090267742E-09 
    3.9425246747826215E-09 
    4.2746797022236160E-09 
    1.5707397223174713E-09 
    1.9026293526791527E-09 
    7.7275718775304814E-09 
    7.3770238633030782E-09 
    1.3142665681448173E-08 
    1.3527065797352966E-08 
    1.9291442577076823E-08 
    1.8862254222082320E-08 
    2.4523601855827581E-08 
    2.5003627850475607E-08 
    3.0636356665100783E-08 
    3.0105038979072463E-08 
    3.5572951488996307E-08 
    3.6149725182038628E-08 
    4.1489307732456293E-08 
    4.0879707490643069E-08 
    4.5962205836441727E-08 
    4.6585154012124264E-08 
    5.1352047201330686E-08 
    5.0741369802057013E-08 
    5.5122988340539081E-08 
    5.5691418879288968E-08 
    5.9495243884266635E-08 
    5.9000347323034941E-08 
    6.2259051490654027E-08 
    6.2652044319905231E-08 
    6.5054803381064952E-08 
    6.4784256842767562E-08 
    6.6470150420286367E-08 
    6.6610152537824319E-08 
    6.7247727969510507E-08 
    6.7230899574929892E-08 
    7.0952538053226100E-08 
    7.0890349644289752E-08 
    6.9869584345613744E-08 
    7.0052687871011154E-08 
    6.8254552267055235E-08 
    6.7943356663047183E-08 
    6.5197241312306420E-08 
    6.5628299905640120E-08 
    6.2267055062417698E-08 
    6.1736735081779903E-08 
    5.7676323854047307E-08 
    5.8277550370536280E-08 
    5.3770948213113789E-08 
    5.3130018017044645E-08 
    4.8204134127025067E-08 
    4.8854935513764630E-08 
    4.3627729425649298E-08 
    4.2992486112836126E-08 
    3.7573766556442401E-08 
    3.8174193401838141E-08 
    3.2563934279986051E-08 
    3.2010717465613681E-08 
    2.6350648057657522E-08 
    2.6851056808552265E-08 
    2.1075178905857750E-08 
    2.0626896876305145E-08 
    1.4860914606534825E-08 
    1.5263326042305736E-08 
    9.4323895187542472E-09 
    9.0647345671324153E-09 
    3.2436840852190230E-09 
    3.5919189150801500E-09 
    2.2528983175534867E-09 
    2.6007389783422319E-09 
    8.4678485820499638E-09 
    8.0981521471262807E-09 
    1.3938062582569133E-08 
    1.4354608720429374E-08 
    2.0252325566572082E-08 
    1.9761802387205374E-08 
    2.5550345362015947E-08 
    2.6143226370192729E-08 
    3.1997031255462383E-08 
    3.1273451342461733E-08 
    3.6886985622236468E-08 
    3.7767739153107827E-08 
    4.3391001087328407E-08 
    4.2330878431001695E-08 
    4.7528140770247695E-08 
    4.8782623801590930E-08 
    5.3838889428267644E-08 
    5.2385431100615554E-08 
    5.6795663418846010E-08 
    5.8439418595956916E-08 
    6.2453146319405017E-08 
    6.0643003875482382E-08 
    6.3810276002343458E-08 
    6.5747530366214169E-08 
    6.8200349737437826E-08 
    6.6188288887908397E-08 
    6.7686008718009782E-08 
    6.9712508595637379E-08 
    7.0219474261265513E-08 
    6.8239999422015085E-08 
    7.1810847475026196E-08 
    7.3784996520651069E-08 
    7.2365009512465051E-08 
    7.0621600586559530E-08 
    6.8485065762499686E-08 
    6.9916048674525944E-08 
    6.6591848892766370E-08 
    6.5513086174723290E-08 
    6.1835153419495525E-08 
    6.2561110628772676E-08 
    5.7987274291321222E-08 
    5.7584033232721543E-08 
    5.2884932497457293E-08 
    5.3015413675402967E-08 
    4.7765778495717504E-08 
    4.7848587208729199E-08 
    4.2567751474750781E-08 
    4.2332253282623133E-08 
    3.6783844753127126E-08 
    3.7116228595798773E-08 
    3.1549598303662330E-08 
    3.1167691094680094E-08 
    2.5512599803600988E-08 
    2.5906964818203648E-08 
    2.0213254793913227E-08 
    1.9832564706820377E-08 
    1.4130028390402227E-08 
    1.4481775041305656E-08 
    8.7168795827319290E-09 
    8.3988542006613320E-09 
    2.6270853513421510E-09 
    2.9166957460358134E-09 
    2.9240729577245661E-09 
    3.2003703662880634E-09 
    9.0989606526398203E-09 
    8.8112070643214802E-09 
    1.4747815616292237E-08 
    1.5081431452637628E-08 
    2.1154316517252303E-08 
    2.0730892969292314E-08 
    2.6747557070258554E-08 
    2.7313832921121994E-08 
    3.3541125574881869E-08 
    3.2771024538122417E-08 
    3.8756522709876284E-08 
    3.9796965995222977E-08 
    4.6016282390440311E-08 
    4.4637550362588985E-08 
    5.0323167001542490E-08 
    5.2103299310463091E-08 
    5.7928572940249556E-08 
    5.5697270712196101E-08 
    6.0621014985606791E-08 
    6.3329710092360769E-08 
    6.8117805861189762E-08 
    6.4939450487161432E-08 
    6.8492956577237418E-08 
    7.2091226779869011E-08 
    7.5056874302564802E-08 
    7.1132913457075397E-08 
    7.2739464921853236E-08 
    7.6856356301738260E-08 
    7.7391257919529055E-08 
    7.3237664868427976E-08 
    7.6937954337358283E-08 
    8.1468348999205742E-08 
    7.9285628945893749E-08 
    7.5200392383664716E-08 
    7.2302396120563217E-08 
    7.5744978240976923E-08 
    7.1172197859195596E-08 
    6.8463863894113741E-08 
    6.3914318278873727E-08 
    6.5889771106233952E-08 
    6.0173959832293678E-08 
    5.8863512564233389E-08 
    5.3485603290076567E-08 
    5.4237239295248929E-08 
    4.8228243980028007E-08 
    4.7914295983955690E-08 
    4.2244912786676414E-08 
    4.2240754167047201E-08 
    3.6325587952565352E-08 
    3.6539826204703973E-08 
    3.0834849600730463E-08 
    3.0501937397717227E-08 
    2.4766679405235914E-08 
    2.5145260845738093E-08 
    1.9470912798746909E-08 
    1.9101373904470420E-08 
    1.3477234994674347E-08 
    1.3800350133486017E-08 
    8.1140905227455873E-09 
    7.8585679699760824E-09 
    2.2051921174520706E-09 
    2.3873297227972046E-09 
    3.4076365375279583E-09 
    3.5256685574497348E-09 
    9.3775842265053644E-09 
    9.2989728972536767E-09 
    1.5312542369499971E-08 
    1.5392779093015285E-08 
    2.1609204816155914E-08 
    2.1468514761063817E-08 
    2.7777048289961970E-08 
    2.8056340622278908E-08 
    3.4749205572032205E-08 
    3.4232798836950074E-08 
    4.0808153066798636E-08 
    4.1680117765161007E-08 
    4.8807974113718178E-08 
    4.7445382553301663E-08 
    5.4048452624924637E-08 
    5.6045418804148706E-08 
    6.3245416515034236E-08 
    6.0476040893847616E-08 
    6.6538362144749619E-08 
    7.0190569792169533E-08 
    7.6590824156855253E-08 
    7.2001354912976101E-08 
    7.6601980836601968E-08 
    8.2097071843825753E-08 
    8.6337582267531632E-08 
    8.0076791328029251E-08 
    8.2201622947711273E-08 
    8.8978337349152059E-08 
    8.9795726328570358E-08 
    8.2833697217371549E-08 
    8.7681789629270868E-08 
    9.6049449765239769E-08 
    9.2264485105839067E-08 
    8.4857244158492717E-08 
    8.0386158377368511E-08 
    8.6416622467264115E-08 
    7.9298542406125438E-08 