# vtk DataFile Version 2.0
Pressure Field Data 
ASCII 
DATASET UNSTRUCTURED_GRID 

POINTS 8259 float 

    0.0000000000000000E+00     0.0000000000000000E+00     0.0000000000000000E+00 
    5.0000000000000000E-01     0.0000000000000000E+00     0.0000000000000000E+00 
    1.0000000000000000E+00     0.0000000000000000E+00     0.0000000000000000E+00 
    1.0000000000000000E+00     1.0000000000000000E+00     0.0000000000000000E+00 
    5.0000000000000000E-01     1.0000000000000000E+00     0.0000000000000000E+00 
    0.0000000000000000E+00     1.0000000000000000E+00     0.0000000000000000E+00 
    1.5624999999970940E-02     0.0000000000000000E+00     0.0000000000000000E+00 
    3.1249999999936530E-02     0.0000000000000000E+00     0.0000000000000000E+00 
    4.6874999999911612E-02     0.0000000000000000E+00     0.0000000000000000E+00 
    6.2499999999886688E-02     0.0000000000000000E+00     0.0000000000000000E+00 
    7.8124999999841765E-02     0.0000000000000000E+00     0.0000000000000000E+00 
    9.3749999999796829E-02     0.0000000000000000E+00     0.0000000000000000E+00 
    1.0937499999975120E-01     0.0000000000000000E+00     0.0000000000000000E+00 
    1.2499999999970560E-01     0.0000000000000000E+00     0.0000000000000000E+00 
    1.4062499999966011E-01     0.0000000000000000E+00     0.0000000000000000E+00 
    1.5624999999961450E-01     0.0000000000000000E+00     0.0000000000000000E+00 
    1.7187499999956890E-01     0.0000000000000000E+00     0.0000000000000000E+00 
    1.8749999999952341E-01     0.0000000000000000E+00     0.0000000000000000E+00 
    2.0312499999947781E-01     0.0000000000000000E+00     0.0000000000000000E+00 
    2.1874999999943229E-01     0.0000000000000000E+00     0.0000000000000000E+00 
    2.3437499999938941E-01     0.0000000000000000E+00     0.0000000000000000E+00 
    2.4999999999934661E-01     0.0000000000000000E+00     0.0000000000000000E+00 
    2.6562499999938499E-01     0.0000000000000000E+00     0.0000000000000000E+00 
    2.8124999999942352E-01     0.0000000000000000E+00     0.0000000000000000E+00 
    2.9687499999946471E-01     0.0000000000000000E+00     0.0000000000000000E+00 
    3.1249999999950578E-01     0.0000000000000000E+00     0.0000000000000000E+00 
    3.2812499999954697E-01     0.0000000000000000E+00     0.0000000000000000E+00 
    3.4374999999958822E-01     0.0000000000000000E+00     0.0000000000000000E+00 
    3.5937499999962941E-01     0.0000000000000000E+00     0.0000000000000000E+00 
    3.7499999999967060E-01     0.0000000000000000E+00     0.0000000000000000E+00 
    3.9062499999971179E-01     0.0000000000000000E+00     0.0000000000000000E+00 
    4.0624999999975292E-01     0.0000000000000000E+00     0.0000000000000000E+00 
    4.2187499999979411E-01     0.0000000000000000E+00     0.0000000000000000E+00 
    4.3749999999983530E-01     0.0000000000000000E+00     0.0000000000000000E+00 
    4.5312499999987649E-01     0.0000000000000000E+00     0.0000000000000000E+00 
    4.6874999999991768E-01     0.0000000000000000E+00     0.0000000000000000E+00 
    4.8437499999995881E-01     0.0000000000000000E+00     0.0000000000000000E+00 
    5.1562500000000289E-01     0.0000000000000000E+00     0.0000000000000000E+00 
    5.3125000000000000E-01     0.0000000000000000E+00     0.0000000000000000E+00 
    5.4687500000001565E-01     0.0000000000000000E+00     0.0000000000000000E+00 
    5.6249999999999989E-01     0.0000000000000000E+00     0.0000000000000000E+00 
    5.7812499999996880E-01     0.0000000000000000E+00     0.0000000000000000E+00 
    5.9374999999999978E-01     0.0000000000000000E+00     0.0000000000000000E+00 
    6.0937500000000666E-01     0.0000000000000000E+00     0.0000000000000000E+00 
    6.2499999999999978E-01     0.0000000000000000E+00     0.0000000000000000E+00 
    6.4062499999998734E-01     0.0000000000000000E+00     0.0000000000000000E+00 
    6.5624999999999978E-01     0.0000000000000000E+00     0.0000000000000000E+00 
    6.7187499999999822E-01     0.0000000000000000E+00     0.0000000000000000E+00 
    6.8749999999999978E-01     0.0000000000000000E+00     0.0000000000000000E+00 
    7.0312499999999978E-01     0.0000000000000000E+00     0.0000000000000000E+00 
    7.1874999999999978E-01     0.0000000000000000E+00     0.0000000000000000E+00 
    7.3437499999999645E-01     0.0000000000000000E+00     0.0000000000000000E+00 
    7.4999999999999978E-01     0.0000000000000000E+00     0.0000000000000000E+00 
    7.6562499999996581E-01     0.0000000000000000E+00     0.0000000000000000E+00 
    7.8124999999999978E-01     0.0000000000000000E+00     0.0000000000000000E+00 
    7.9687500000006262E-01     0.0000000000000000E+00     0.0000000000000000E+00 
    8.1249999999999989E-01     0.0000000000000000E+00     0.0000000000000000E+00 
    8.2812499999998379E-01     0.0000000000000000E+00     0.0000000000000000E+00 
    8.4374999999999989E-01     0.0000000000000000E+00     0.0000000000000000E+00 
    8.5937500000000644E-01     0.0000000000000000E+00     0.0000000000000000E+00 
    8.7499999999999989E-01     0.0000000000000000E+00     0.0000000000000000E+00 
    8.9062499999999778E-01     0.0000000000000000E+00     0.0000000000000000E+00 
    9.0625000000000000E-01     0.0000000000000000E+00     0.0000000000000000E+00 
    9.2187500000000644E-01     0.0000000000000000E+00     0.0000000000000000E+00 
    9.3750000000000000E-01     0.0000000000000000E+00     0.0000000000000000E+00 
    9.5312499999997879E-01     0.0000000000000000E+00     0.0000000000000000E+00 
    9.6875000000000000E-01     0.0000000000000000E+00     0.0000000000000000E+00 
    9.8437499999997480E-01     0.0000000000000000E+00     0.0000000000000000E+00 
    1.0000000000000000E+00     1.5624999999970180E-02     0.0000000000000000E+00 
    1.0000000000000000E+00     3.1249999999940509E-02     0.0000000000000000E+00 
    1.0000000000000000E+00     4.6874999999906783E-02     0.0000000000000000E+00 
    1.0000000000000000E+00     6.2499999999873053E-02     0.0000000000000000E+00 
    1.0000000000000000E+00     7.8124999999848468E-02     0.0000000000000000E+00 
    1.0000000000000000E+00     9.3749999999823891E-02     0.0000000000000000E+00 
    1.0000000000000000E+00     1.0937499999979861E-01     0.0000000000000000E+00 
    1.0000000000000000E+00     1.2499999999977340E-01     0.0000000000000000E+00 
    1.0000000000000000E+00     1.4062499999972911E-01     0.0000000000000000E+00 
    1.0000000000000000E+00     1.5624999999968489E-01     0.0000000000000000E+00 
    1.0000000000000000E+00     1.7187499999963929E-01     0.0000000000000000E+00 
    1.0000000000000000E+00     1.8749999999959369E-01     0.0000000000000000E+00 
    1.0000000000000000E+00     2.0312499999954800E-01     0.0000000000000000E+00 
    1.0000000000000000E+00     2.1874999999950240E-01     0.0000000000000000E+00 
    1.0000000000000000E+00     2.3437499999945680E-01     0.0000000000000000E+00 
    1.0000000000000000E+00     2.4999999999941119E-01     0.0000000000000000E+00 
    1.0000000000000000E+00     2.6562499999936562E-01     0.0000000000000000E+00 
    1.0000000000000000E+00     2.8124999999931999E-01     0.0000000000000000E+00 
    1.0000000000000000E+00     2.9687499999927452E-01     0.0000000000000000E+00 
    1.0000000000000000E+00     3.1249999999922901E-01     0.0000000000000000E+00 
    1.0000000000000000E+00     3.2812499999918338E-01     0.0000000000000000E+00 
    1.0000000000000000E+00     3.4374999999913791E-01     0.0000000000000000E+00 
    1.0000000000000000E+00     3.5937499999909228E-01     0.0000000000000000E+00 
    1.0000000000000000E+00     3.7499999999904682E-01     0.0000000000000000E+00 
    1.0000000000000000E+00     3.9062499999900119E-01     0.0000000000000000E+00 
    1.0000000000000000E+00     4.0624999999895561E-01     0.0000000000000000E+00 
    1.0000000000000000E+00     4.2187499999891009E-01     0.0000000000000000E+00 
    1.0000000000000000E+00     4.3749999999886452E-01     0.0000000000000000E+00 
    1.0000000000000000E+00     4.5312499999881900E-01     0.0000000000000000E+00 
    1.0000000000000000E+00     4.6874999999877343E-01     0.0000000000000000E+00 
    1.0000000000000000E+00     4.8437499999873318E-01     0.0000000000000000E+00 
    1.0000000000000000E+00     4.9999999999869310E-01     0.0000000000000000E+00 
    1.0000000000000000E+00     5.1562499999872891E-01     0.0000000000000000E+00 
    1.0000000000000000E+00     5.3124999999876465E-01     0.0000000000000000E+00 
    1.0000000000000000E+00     5.4687499999880584E-01     0.0000000000000000E+00 
    1.0000000000000000E+00     5.6249999999884692E-01     0.0000000000000000E+00 
    1.0000000000000000E+00     5.7812499999888822E-01     0.0000000000000000E+00 
    1.0000000000000000E+00     5.9374999999892941E-01     0.0000000000000000E+00 
    1.0000000000000000E+00     6.0937499999897060E-01     0.0000000000000000E+00 
    1.0000000000000000E+00     6.2499999999901168E-01     0.0000000000000000E+00 
    1.0000000000000000E+00     6.4062499999905287E-01     0.0000000000000000E+00 
    1.0000000000000000E+00     6.5624999999909406E-01     0.0000000000000000E+00 
    1.0000000000000000E+00     6.7187499999913525E-01     0.0000000000000000E+00 
    1.0000000000000000E+00     6.8749999999917644E-01     0.0000000000000000E+00 
    1.0000000000000000E+00     7.0312499999921751E-01     0.0000000000000000E+00 
    1.0000000000000000E+00     7.1874999999925870E-01     0.0000000000000000E+00 
    1.0000000000000000E+00     7.3437499999930000E-01     0.0000000000000000E+00 
    1.0000000000000000E+00     7.4999999999934119E-01     0.0000000000000000E+00 
    1.0000000000000000E+00     7.6562499999938238E-01     0.0000000000000000E+00 
    1.0000000000000000E+00     7.8124999999942357E-01     0.0000000000000000E+00 
    1.0000000000000000E+00     7.9687499999946465E-01     0.0000000000000000E+00 
    1.0000000000000000E+00     8.1249999999950584E-01     0.0000000000000000E+00 
[...]
CELL_DATA 8130 
SCALARS Pressure float 1 
LOOKUP_TABLE default 

    4.4890407809447197E+00 
    4.3810282460397207E+00 
    4.3113839273817280E+00 
    4.0327697392402611E+00 
    4.1516548079769802E+00 
    4.2220100789765480E+00 
    2.1084565306965977E+00 
    2.2188978925354661E+00 
    2.2854326503154319E+00 
    2.7704053020928026E+00 
    2.6172370609251536E+00 
    2.7765372304727767E+00 
    2.4485230346522009E+00 
    2.5539748658608716E+00 
    2.6037894924510501E+00 
    2.8763311333570529E+00 
    2.7589318755352128E+00 
    2.7070087121804285E+00 
    4.7259406131740480E+00 
    4.7163576414109354E+00 
    4.8533714759822413E+00 
    5.6638757120433132E+00 
    5.4985037283804541E+00 
    5.5586619680887797E+00 
    2.3361875277699493E+00 
    2.5016506436781132E+00 
    2.4419623498839056E+00 
    4.6804798938281111E+00 
    4.6066093795196892E+00 
    4.5171454604728565E+00 
    3.3193100240484412E+00 
    3.3926535430070071E+00 
    3.4825184740385149E+00 
    4.5893187164423761E+00 
    4.4778704416826622E+00 
    4.5845016213219321E+00 
    4.3342482730721006E+00 
    4.3917949756596411E+00 
    4.4595748643823505E+00 
    4.6765501643600649E+00 
    4.5863685241213767E+00 
    4.5164573298385440E+00 
    5.0748653453329942E+00 
    4.9035858892443231E+00 
    4.9839170846171603E+00 
    4.6335464890642717E+00 
    4.8233920344582346E+00 
    4.7459997164342855E+00 
    6.1636167180428743E+00 
    6.1912798079582219E+00 
    6.3369623215341022E+00 
    6.8031555780227446E+00 
    6.9716906838985606E+00 
    6.8365421713865313E+00 
    2.8658494683632760E+00 
    2.9491230521846350E+00 
    2.8050735724207319E+00 
    2.9274690681260158E+00 
    2.9283207763441808E+00 
    3.0524417362495608E+00 
    2.5707356907174890E+00 
    2.4334301567561725E+00 
    2.4778355115737378E+00 
    7.7518299045212204E+00 
    7.6127768552922062E+00 
    7.6181979216405908E+00 
    6.9408016462958528E+00 
    6.8218851043018534E+00 
    6.7901947850690272E+00 
    2.9878360605982630E+00 
    3.1318015547375517E+00 
    3.0657392470551716E+00 
    5.3753943600344989E-01 
    7.2916825041690358E-01 
    6.5210332166025453E-01 
    6.7253192663082615E+00 
    6.6837890204964605E+00 
    6.5495091935617635E+00 
    6.4463223649829136E+00 
    6.4466295447279762E+00 
    6.5852741505443086E+00 
    2.2431281700765227E+00 
    2.3586138633389897E+00 
    2.3218455075603486E+00 
    6.4531902447532588E+00 
    6.3217837197968674E+00 
    6.2922599404104957E+00 
    6.0120348492676232E+00 
    6.1319071094437936E+00 
    6.1656522335328736E+00 
    3.4369144333859780E+00 
    3.5825914237076941E+00 
    3.4345935421986384E+00 
    3.6542307341726290E+00 
    3.5653379745838940E+00 
    3.5290212941810220E+00 
    3.3166409629924343E+00 
    3.4061358870109606E+00 
    3.4430505347467126E+00 
    4.5275136280459698E+00 
    4.6660340868002672E+00 
    4.5304876794564972E+00 
    5.7433257245890355E+00 
    5.6456861858818721E+00 
    5.5755460997133177E+00 
    6.1916232252788852E+00 
    6.3334081435231031E+00 
    6.3218543042733168E+00 
    8.5297529422493767E-01 
    1.0646078159426402E+00 
    9.7196581757131306E-01 
    6.2111368108919986E+00 
    6.0383916179269566E+00 
    6.0330996195794224E+00 
    6.6325347844397982E+00 
    6.4835151057470135E+00 
    6.4423158474542204E+00 
    1.4376697643519729E+00 
    1.3391479381643556E+00 
    1.2651055403080731E+00 
    8.9951891611256074E-01 
    7.2245860842818344E-01 
    7.9055584332830087E-01 
    6.4632378743640011E+00 
    6.5696946389844832E+00 
    6.6395961208926044E+00 
    4.5563759828118764E+00 
    4.4112812521392746E+00 
    4.5454056997781969E+00 
    3.4806709183986091E+00 
    3.4968671870663814E+00 
    3.6403051263026480E+00 
    6.1067582354569279E+00 
    6.2343733144923599E+00 
    6.0926214111157275E+00 
    6.0863032967662720E+00 
    6.2415332591006267E+00 
    6.2487953466581283E+00 
    1.5636344077001856E+00 
    1.6143454442414413E+00 
    1.4687345428674186E+00 
    3.0838870462253651E+00 
    3.2507433526281075E+00 
    3.1007917110230592E+00 
    3.3207504759731630E+00 
    3.1854190219759557E+00 
    3.3340564860368866E+00 
    6.0210247078915691E+00 
    6.1847393549742877E+00 
    6.0570001956807866E+00 
    3.4222997015286700E+00 
    3.3689650892531375E+00 
    3.5423736394615055E+00 
    3.3857346132729949E+00 
    3.3750387111310189E+00 
    3.2437258873071912E+00 
    3.5142363431989208E+00 
    3.6103017465668397E+00 
    3.5117661670918623E+00 
    6.2244634138826846E+00 
    6.3951209432675382E+00 
    6.3580361872896498E+00 
    6.8478586359101241E+00 
    6.9603370997778065E+00 
    7.0145305309587842E+00 
    5.3460550797447466E+00 
    5.2324333672407501E+00 
    5.4015645459558943E+00 
    2.6541347469853518E+00 
    2.7677440878687123E+00 
    2.5991465482983518E+00 
    6.6972842993389365E+00 
    6.5228296215428347E+00 
    6.6087028458837578E+00 
    6.5993451682752271E+00 
    6.5164577482086834E+00 
    6.4491753946777930E+00 
    9.8349729773358407E-01 
    1.1055914845913664E+00 
    1.1809825995268268E+00 
    4.2771249880576462E-01 
    6.2239416184022389E-01 
    5.6261947714098526E-01 
    1.6277361856077606E+00 
    1.5065807855368323E+00 
    1.7100869612565430E+00 
    9.2295354082420034E-01 
    1.0260338520416106E+00 
    8.2632037103853129E-01 
    3.0049581755241244E+00 
    3.0756251683156970E+00 
    2.8888778121703913E+00 
    2.8902222411189538E+00 
    2.8468811360232218E+00 
    3.0336259297097432E+00 
    3.7986124968300965E+00 
    3.9162601715747276E+00 
    3.9184696894159443E+00 
    6.2952056995903121E+00 
    6.1660193220644199E+00 
    6.2930179654588354E+00 
    4.9694633347900785E+00 
    5.1148052854414621E+00 
    5.1080660946882723E+00 
    5.4409574243181860E+00 
    5.2771850920118188E+00 
    5.2809674011706420E+00 
    9.8194800484174205E-01 
    1.1856924941967208E+00 
    1.1141761975028086E+00 
    4.0808458863577246E-01 
    5.2241413697666594E-01 
    6.0921443020735633E-01 
    5.3676108023614901E+00 
    5.4425092375772470E+00 
    5.5144340484308954E+00 
    1.0248621627371588E+00 
    9.1362831025885882E-01 
    1.0556288299015626E+00 
    2.4159176801630520E+00 
    2.5704282326353929E+00 
    2.4638615219112348E+00 
    1.6750722861949030E+00 
    1.6937760259239578E+00 
    1.8031217126590471E+00 
    7.3649809150300740E+00 
    7.4815861044046041E+00 
    7.4702470330324626E+00 
    6.5637444573835939E+00 
    6.6510898210000677E+00 
    6.6882893983016984E+00 
    9.3508921712172566E-01 
    9.1784801127318660E-01 
    1.1060517094465079E+00 
    2.7124329378907369E-01 
    2.6507011372856065E-01 
    4.4470817169945009E-01 
    4.1011501601700600E+00 
    4.2605966468251477E+00 
    4.2592435884520423E+00 
    3.8891263568187728E+00 
    3.7337307514961644E+00 
    3.7281599941610444E+00 
    7.2859014646318911E+00 
    7.1728278451322414E+00 
    7.1278820905206635E+00 
    2.2787944203045245E+00 
    2.3252805773794782E+00 
    2.1784787386107975E+00 
    1.5441030118336303E+00 
    1.4297950858367288E+00 
    1.5610818866173293E+00 
    6.2310792868764402E+00 
    6.3196755698049243E+00 
    6.3819877259095001E+00 
    5.4085601507344971E-01 
    6.7103981178845129E-01 
    7.3855904187012256E-01 
    3.7251028265849215E+00 
    3.7136009436946118E+00 
    3.8448424544793265E+00 
    6.7582028308596591E+00 
    6.7481555166146876E+00 
    6.8864054552017562E+00 
    1.2418555106899285E+00 
    1.2529677306680806E+00 
    1.1133952343058011E+00 
    5.7876084208539682E+00 
    5.9356722993968267E+00 
    5.8068963499039112E+00 
    2.2131153069043248E+00 
    2.0640306365122996E+00 
    2.1951092626187614E+00 
    4.0273489181616506E+00 
    4.1783314561062195E+00 
    4.0232916707615889E+00 
    3.9709539370089257E+00 
    3.8188207873503965E+00 
    3.9725488829453264E+00 
    6.1735670624140537E+00 
    5.9835886511093843E+00 
    6.1118211154799775E+00 
    6.9417616011673440E+00 
    6.7961402629780467E+00 
    6.8425172495526203E+00 
    4.2885819713556730E+00 
    4.4502896896827284E+00 
    4.3137965040909592E+00 
    6.9957860060922181E+00 
    7.0471511193172143E+00 
    7.1459996787778337E+00 
    4.3045658570423369E+00 
    4.1207372260394477E+00 
    4.1994951425668807E+00 
    3.9071116389811515E+00 
    4.0550329199788866E+00 
    3.9768051891106952E+00 
    3.7193070302677325E+00 
    3.5329474879047371E+00 
    3.6846562076130027E+00 
    3.5308509055458259E-01 
    5.2400794628956715E-01 
    4.9144533611935320E-01 
    9.8246181514580178E-01 
    1.1138502553331306E+00 
    1.1672696677372527E+00 
    2.5744802759527743E+00 
    2.6140169995941278E+00 
    2.4602565787143198E+00 
    6.1472501683884726E+00 
    6.3051526496464332E+00 
    6.2559484869088280E+00 
    6.5506666296033140E+00 
    6.3985092167287201E+00 
    6.4517833341073958E+00 
    5.7349765196125597E+00 
    5.6566416054394395E+00 
    5.5781531368504265E+00 
    5.3358446866195184E+00 
    5.4367841594390001E+00 
    5.5135724161568014E+00 
    4.0200993898582054E+00 
    4.2081618441481501E+00 
    4.1106880400360781E+00 
    3.3279429827168734E+00 
    3.4028635999856429E+00 
    3.2202970085835028E+00 
    6.1625172445187921E+00 
    6.0978112692199851E+00 
    5.9852920133905201E+00 
    6.4610533840832618E+00 
    6.6360856535939563E+00 
    6.5614393211123234E+00 
    6.9340535778874806E+00 
    6.9504476909559223E+00 
    6.8123935255769030E+00 
    1.7355700660305723E-01 
    3.3009993806362092E-01 
    3.1029919983874993E-01 
    6.8367638463864413E+00 
    6.7169176272223634E+00 
    6.6791925145909321E+00 
    8.9323316633196745E-02 
    2.2793694847497281E-01 
    9.5393978720906769E-02 
    7.9102524658709763E+00 
    7.7702162370247070E+00 
    7.9038219774614529E+00 
    7.8260574509069603E+00 
    7.6692330586318995E+00 
    7.6878869480356578E+00 
    1.0648561086951192E+00 
    1.0488381351087748E+00 
    1.1849899152922945E+00 
    1.1619540504512682E+00 
    1.2795358155638312E+00 
    1.3191649941728190E+00 
    1.7539821067021126E+00 
    1.5875700704694498E+00 
    1.5998935586608958E+00 
    1.2556472138273684E+00 
    1.4237716500038522E+00 
    1.4126645992448108E+00 
    3.6518660992815315E+00 
    3.5104277672420299E+00 
    3.4688097077693967E+00 
    3.1872414592790439E+00 
    3.3003389017804032E+00 
    3.3526748529948613E+00 
    2.0794697272357343E+00 
    2.2585811506990159E+00 
    2.1377449071130554E+00 
    1.9394689814286019E+00 
    1.7723117754828952E+00 
    1.8420845375926351E+00 
    1.5048629567554626E+00 
    1.6855705821416669E+00 
    1.6187736160008859E+00 
    4.3570248333152923E+00 
    4.5017316621660202E+00 
    4.5180683662414935E+00 
    6.1199803830220789E+00 
    6.0686620330883985E+00 
    6.2126902021690125E+00 
    6.6854125374504099E+00 
    6.4912569545306891E+00 
    6.6302265696451119E+00 
    5.0611528539879576E+00 
    5.1494344056892842E+00 
    5.0035146768643486E+00 
    2.9351571333763178E+00 
    2.8465341336712844E+00 
    2.9916668288771562E+00 
    2.6816044141994317E+00 
    2.5280927935694093E+00 
    2.5294829353204071E+00 
    3.5885691330575478E+00 
    3.7348196440072261E+00 
    3.7333019385843116E+00 
    3.0690282285602830E+00 
    3.0236699158775995E+00 
    3.1794479670882843E+00 
    6.2956759589416968E+00 
    6.2745170022917094E+00 
    6.1279823689917423E+00 
    6.5683367289551677E+00 
    6.7085593980771794E+00 
    6.6590693515858259E+00 
    1.7829612611905947E+00 
    1.9428822617428112E+00 
    1.9624238778638743E+00 
    7.0264099621661580E-01 
    8.6321149831233035E-01 
    8.4949390751266218E-01 
    5.9914423236087195E+00 
    5.8533243770047552E+00 
    5.9308892749074200E+00 
    2.7328202694798835E+00 
    2.6772280315095287E+00 
    2.5812509546772895E+00 
    7.2824399201426893E+00 
    7.0914058892619893E+00 
    7.1160268323356703E+00 
    3.1331622840397890E+00 
    3.1229798448872335E+00 
    3.0033495885168726E+00 
    5.4489790679089545E+00 
    5.4432914971811304E+00 
    5.2947018790314297E+00 
    2.5516507432862054E+00 
    2.5576101428265634E+00 
    2.7058689390201236E+00 
    6.8666540058535475E+00 
    6.7977744506675837E+00 
    6.9238579977301615E+00 
    1.1371864740848603E+00 
    1.1817378245959751E+00 
    1.2955344682022414E+00 
    4.6109123921806097E+00 
    4.6516458807943719E+00 
    4.5070287722114006E+00 
    1.3867926249556504E+00 
    1.3506355579257723E+00 
    1.5095776808537036E+00 
    1.6066670664476699E+00 
    1.5805714353818681E+00 
    1.4293332646391730E+00 
    5.1803338227420710E+00 
    5.3202037343742514E+00 
    5.2582840773879456E+00 
    2.8157639847354599E+00 
    2.6747428732491625E+00 
    2.7394326069072217E+00 
    5.0197365092834350E+00 
    5.1670864297313468E+00 
    5.1048725776620048E+00 
    2.9770882463646218E+00 
    2.8296770842764092E+00 
    2.8945666424403944E+00 
    5.8176291743664503E+00 
    5.9835652841069562E+00 
    5.8498804896376217E+00 
    1.7789463464700523E+00 
    1.8647751176072580E+00 
    1.9324019595417152E+00 
    2.1654008184576954E+00 
    2.0654758290023936E+00 
    2.0051426488172499E+00 
    1.4551354078101404E+00 
    1.3072984694696885E+00 
    1.3395871550698426E+00 
    1.0573429064641038E+00 
    1.2023875310533148E+00 
    1.1627619324597527E+00 
    3.3406962518959067E+00 
    3.2299356878097640E+00 
    3.4028633080833868E+00 
    7.3294749865439908E+00 
    7.3435219864110142E+00 
    7.1825506843128730E+00 
    4.8053146391545924E+00 
    4.9264192034750796E+00 
    4.9241050424456656E+00 
    2.4483816084415686E+00 
    2.3933718272653972E+00 
    2.5787627002288271E+00 
    1.1921541014829682E+00 
    1.3464050357289636E+00 
    1.3239760421228428E+00 
    2.2188701856906987E+00 
    2.3367530600083657E+00 
    2.3689142927082938E+00 
    2.5096265401030191E+00 
    2.5959424128216737E+00 
    2.4168714284793262E+00 
    2.7120879492801611E+00 
    2.7279484671550267E+00 
    2.8619529706853735E+00 
    2.9135663503346563E+00 
    2.9365580600586205E+00 
    2.7942205656954942E+00 
    1.8471772127725408E+00 
    1.6988085277739395E+00 
    1.8489867271844436E+00 
    6.0185142385766515E+00 
    6.0701286932169563E+00 
    5.9252060871725822E+00 
    3.3304330736392331E+00 
    3.4425236963107761E+00 
    3.5129758143752117E+00 
    5.3101766924802511E+00 
    5.1498269434825721E+00 
    5.2072691136484455E+00 
    6.8063346542012360E-01 
    8.3198087866736503E-01 
    8.5300233411819115E-01 
    3.7360987271465431E+00 
    3.6635809973383164E+00 
    3.5842034810786272E+00 
    4.3570716541327954E+00 
    4.2978792204671636E+00 
    4.2339664583923042E+00 
    2.5134884202877674E+00 
    2.5812568114724681E+00 
    2.4399302796825149E+00 
    5.0878143089065286E+00 
    5.0274331103384755E+00 
    4.9194077597483590E+00 
    4.7095875883529814E+00 
    4.7820101762555787E+00 
    4.8911975602493030E+00 
    7.3871974411406764E+00 
    7.3947941604775203E+00 
    7.2185725159040546E+00 
    6.0254751654126226E-01 
    7.7719003517706109E-01 
    6.1502779680799124E-01 
    4.0605440312348966E+00 
    4.1533831899232885E+00 
    4.2243741854125272E+00 
    4.4118068326554569E+00 
    4.3539712910729662E+00 
    4.2825319305736942E+00 
    6.3499957781789611E+00 
    6.2946911874431288E+00 
    6.4895794749757263E+00 
    6.4363009786805083E+00 
    6.5170226176442041E+00 
    6.3283640905930802E+00 
    5.7927281327898621E+00 
    5.6900122565564821E+00 
    5.8621289913554531E+00 
    2.2074034962629510E+00 
    2.3105761026285583E+00 
    2.1382972972169458E+00 
    4.8218396109465660E+00 
    4.9105192249555145E+00 
    4.7462487984216208E+00 
    3.1780662905656953E+00 
    3.0897912747835772E+00 
    3.2532861065734977E+00 
    4.5442177352353399E+00 
    4.4099623518039559E+00 
    4.4737823806279780E+00 
    4.7068551733360904E+00 
    4.7003135760714398E+00 
    4.8423066162339756E+00 
    6.7841393850747753E+00 
    6.8684479380209780E+00 
    6.6984327556100034E+00 
    6.6848697117982399E+00 
    6.6651654308323458E+00 
    6.8289421620947479E+00 
    3.5612162291852116E+00 
    3.3823648089432616E+00 
    3.4606197481700494E+00 
    4.4348283141914138E+00 
    4.6143725823424511E+00 
    4.5480508532779274E+00 
    2.1701354629986738E+00 
    2.3199864616067054E+00 
    2.1896443748847392E+00 
    3.2906277223697904E+00 
    3.2817284307112122E+00 
    3.1696387380046636E+00 
    5.0146525917340634E+00 
    4.9345699368825668E+00 
    5.1211761678885983E+00 
    5.1179690669048066E+00 
    5.1632042888642520E+00 
    4.9671994571664495E+00 
    5.3970495573811732E+00 
    5.2433900076332121E+00 
    5.2962439352322308E+00 
    2.6030222587219209E+00 
    2.7565362055925680E+00 
    2.7026049715588245E+00 
    5.9064750194413271E+00 
    5.8686857194808555E+00 
    6.0193703601131521E+00 
    7.4760945715998572E-01 
    7.3730197384261409E-01 
    8.6558698864483685E-01 
    6.3346212751561719E+00 
    6.4449211106957263E+00 
    6.2931865193255643E+00 
    2.3901038835823809E+00 
    2.3113430879744632E+00 
    2.2234328729811970E+00 
    6.9474154270025759E+00 
    6.7992146387787038E+00 
    6.8358407397051115E+00 
    6.3435210220038876E+00 
    6.5015006258467647E+00 
    6.3927775321262725E+00 
    1.6597961431007902E+00 
    1.5010227538840397E+00 
    1.6086480200483402E+00 
    5.4287249876093213E+00 
    5.4585052199590622E+00 
    5.5781848034887664E+00 
    2.5819261462357623E+00 
    2.5497889633345001E+00 
    2.4303556509355264E+00 
    3.4194137586146889E+00 
    3.5373357433119201E+00 
    3.3674310219590389E+00 
    4.4221682278385188E+00 
    4.5581794395463771E+00 
    4.4961234868594167E+00 
    1.6201516020140356E+00 
    1.4988229388748380E+00 
    1.4604318758645878E+00 
    2.5210252442061418E+00 
    2.3689158162559982E+00 
    2.3861476466852447E+00 
    2.6258171199441205E+00 
    2.4701234069402886E+00 
    2.5685714388697778E+00 
    6.1821268293357541E+00 
    6.1432316387331900E+00 
    6.0371844241344448E+00 
    6.5186741390524636E+00 
    6.3619722266093239E+00 
    6.5074008227419258E+00 
    6.3875989298721558E+00 
    6.5133887139910849E+00 
    6.5469451717243308E+00 
    5.4905175452394186E+00 
    5.6406409104388464E+00 
    5.6257515703593173E+00 
    1.0775799847747489E+00 
    9.9917808779132045E-01 
    1.1352485876525782E+00 
    2.4630420383006024E+00 
    2.3607080460824692E+00 
    2.3256395636085858E+00 
    5.6144263507871326E+00 
    5.6576757161773861E+00 
    5.7646083812628710E+00 
    5.8870343003815808E+00 
    5.8683786022899556E+00 
    5.7535802930921465E+00 
    2.6821476774993562E+00 
    2.7978037040341173E+00 
    2.6699370999043390E+00 
    1.2470935904325668E+00 
    1.1163418880975036E+00 
    1.2086599946206724E+00 
    6.9045960872947800E+00 
    6.9860863218427909E+00 
    7.0443255508780327E+00 
    2.1037102524735856E+00 
    1.9938092893835919E+00 
    1.9942982943603453E+00 
    1.7337904437948313E+00 
    1.8613886714986381E+00 
    1.8575877781864023E+00 
    6.6098327402814192E+00 
    6.4832709516284117E+00 
    6.5979235505721574E+00 
    1.3905500623134646E+00 
    1.5174855284298212E+00 
    1.4036246715887826E+00 
    5.6390619638079285E+00 
    5.6545210967553556E+00 
    5.5292194243112940E+00 
    2.3565898764075683E+00 
    2.3492706550068871E+00 
    2.4685332340380834E+00 
    3.6014413133470535E+00 
    3.5662483313053319E+00 
    3.4257065914947575E+00 
    4.3874452753821984E+00 
    4.4187690123856997E+00 
    4.5655549217362115E+00 
    4.7813981195647903E+00 
    4.6297577897385356E+00 
    4.6913197112717526E+00 
    9.4825407898551872E-01 
    7.9167388180556242E-01 
    8.7176571952367254E-01 
    4.5892015055280782E+00 
    4.7577629703672466E+00 
    4.7003272388213411E+00 
    3.4128305403105279E+00 
    3.2415092300376736E+00 
    3.3049384017926760E+00 
    2.4118932438360461E+00 
    2.5632101243364120E+00 
    2.4386151639830267E+00 