# vtk DataFile Version 2.0
Pressure Field Data 
ASCII 
DATASET UNSTRUCTURED_GRID 

POINTS 8217 float 

    0.0000000000000000E+00     0.0000000000000000E+00     0.0000000000000000E+00 
    5.0000000000000000E-01     0.0000000000000000E+00     0.0000000000000000E+00 
    1.0000000000000000E+00     0.0000000000000000E+00     0.0000000000000000E+00 
    1.0000000000000000E+00     1.0000000000000000E+00     0.0000000000000000E+00 
    5.0000000000000000E-01     1.0000000000000000E+00     0.0000000000000000E+00 
    0.0000000000000000E+00     1.0000000000000000E+00     0.0000000000000000E+00 
    1.5624999999970940E-02     0.0000000000000000E+00     0.0000000000000000E+00 
    3.1249999999936530E-02     0.0000000000000000E+00     0.0000000000000000E+00 
    4.6874999999911612E-02     0.0000000000000000E+00     0.0000000000000000E+00 
    6.2499999999886688E-02     0.0000000000000000E+00     0.0000000000000000E+00 
    7.8124999999841765E-02     0.0000000000000000E+00     0.0000000000000000E+00 
    9.3749999999796829E-02     0.0000000000000000E+00     0.0000000000000000E+00 
    1.0937499999975120E-01     0.0000000000000000E+00     0.0000000000000000E+00 
    1.2499999999970560E-01     0.0000000000000000E+00     0.0000000000000000E+00 
    1.4062499999966011E-01     0.0000000000000000E+00     0.0000000000000000E+00 
    1.5624999999961450E-01     0.0000000000000000E+00     0.0000000000000000E+00 
    1.7187499999956890E-01     0.0000000000000000E+00     0.0000000000000000E+00 
    1.8749999999952341E-01     0.0000000000000000E+00     0.0000000000000000E+00 
    2.0312499999947781E-01     0.0000000000000000E+00     0.0000000000000000E+00 
    2.1874999999943229E-01     0.0000000000000000E+00     0.0000000000000000E+00 
    2.3437499999938941E-01     0.0000000000000000E+00     0.0000000000000000E+00 
    2.4999999999934661E-01     0.0000000000000000E+00     0.0000000000000000E+00 
    2.6562499999938499E-01     0.0000000000000000E+00     0.0000000000000000E+00 
    2.8124999999942352E-01     0.0000000000000000E+00     0.0000000000000000E+00 
    2.9687499999946471E-01     0.0000000000000000E+00     0.0000000000000000E+00 
    3.1249999999950578E-01     0.0000000000000000E+00     0.0000000000000000E+00 
    3.2812499999954697E-01     0.0000000000000000E+00     0.0000000000000000E+00 
    3.4374999999958822E-01     0.0000000000000000E+00     0.0000000000000000E+00 
    3.5937499999962941E-01     0.0000000000000000E+00     0.0000000000000000E+00 
    3.7499999999967060E-01     0.0000000000000000E+00     0.0000000000000000E+00 
    3.9062499999971179E-01     0.0000000000000000E+00     0.0000000000000000E+00 
    4.0624999999975292E-01     0.0000000000000000E+00     0.0000000000000000E+00 
    4.2187499999979411E-01     0.0000000000000000E+00     0.0000000000000000E+00 
    4.3749999999983530E-01     0.0000000000000000E+00     0.0000000000000000E+00 
    4.5312499999987649E-01     0.0000000000000000E+00     0.0000000000000000E+00 
    4.6874999999991768E-01     0.0000000000000000E+00     0.0000000000000000E+00 
    4.8437499999995881E-01     0.0000000000000000E+00     0.0000000000000000E+00 
    5.1562500000000289E-01     0.0000000000000000E+00     0.0000000000000000E+00 
    5.3125000000000000E-01     0.0000000000000000E+00     0.0000000000000000E+00 
    5.4687500000001565E-01     0.0000000000000000E+00     0.0000000000000000E+00 
    5.6249999999999989E-01     0.0000000000000000E+00     0.0000000000000000E+00 
    5.7812499999996880E-01     0.0000000000000000E+00     0.0000000000000000E+00 
    5.9374999999999978E-01     0.0000000000000000E+00     0.0000000000000000E+00 
    6.0937500000000666E-01     0.0000000000000000E+00     0.0000000000000000E+00 
    6.2499999999999978E-01     0.0000000000000000E+00     0.0000000000000000E+00 
    6.4062499999998734E-01     0.0000000000000000E+00     0.0000000000000000E+00 
    6.5624999999999978E-01     0.0000000000000000E+00     0.0000000000000000E+00 
    6.7187499999999822E-01     0.0000000000000000E+00     0.0000000000000000E+00 
    6.8749999999999978E-01     0.0000000000000000E+00     0.0000000000000000E+00 
    7.0312499999999978E-01     0.0000000000000000E+00     0.0000000000000000E+00 
    7.1874999999999978E-01     0.0000000000000000E+00     0.0000000000000000E+00 
    7.3437499999999645E-01     0.0000000000000000E+00     0.0000000000000000E+00 
    7.4999999999999978E-01     0.0000000000000000E+00     0.0000000000000000E+00 
    7.6562499999996581E-01     0.0000000000000000E+00     0.0000000000000000E+00 
    7.8124999999999978E-01     0.0000000000000000E+00     0.0000000000000000E+00 
    7.9687500000006262E-01     0.0000000000000000E+00     0.0000000000000000E+00 
    8.1249999999999989E-01     0.0000000000000000E+00     0.0000000000000000E+00 
    8.2812499999998379E-01     0.0000000000000000E+00     0.0000000000000000E+00 
    8.4374999999999989E-01     0.0000000000000000E+00     0.0000000000000000E+00 
    8.5937500000000644E-01     0.0000000000000000E+00     0.0000000000000000E+00 
    8.7499999999999989E-01     0.0000000000000000E+00     0.0000000000000000E+00 
    8.9062499999999778E-01     0.0000000000000000E+00     0.0000000000000000E+00 
    9.0625000000000000E-01     0.0000000000000000E+00     0.0000000000000000E+00 
    9.2187500000000644E-01     0.0000000000000000E+00     0.0000000000000000E+00 
    9.3750000000000000E-01     0.0000000000000000E+00     0.0000000000000000E+00 
    9.5312499999997879E-01     0.0000000000000000E+00     0.0000000000000000E+00 
    9.6875000000000000E-01     0.0000000000000000E+00     0.0000000000000000E+00 
    9.8437499999997480E-01     0.0000000000000000E+00     0.0000000000000000E+00 
    1.0000000000000000E+00     1.5624999999970180E-02     0.0000000000000000E+00 
    1.0000000000000000E+00     3.1249999999940509E-02     0.0000000000000000E+00 
    1.0000000000000000E+00     4.6874999999906783E-02     0.0000000000000000E+00 
    1.0000000000000000E+00     6.2499999999873053E-02     0.0000000000000000E+00 
    1.0000000000000000E+00     7.8124999999848468E-02     0.0000000000000000E+00 
    1.0000000000000000E+00     9.3749999999823891E-02     0.0000000000000000E+00 
    1.0000000000000000E+00     1.0937499999979861E-01     0.0000000000000000E+00 
    1.0000000000000000E+00     1.2499999999977340E-01     0.0000000000000000E+00 
    1.0000000000000000E+00     1.4062499999972911E-01     0.0000000000000000E+00 
    1.0000000000000000E+00     1.5624999999968489E-01     0.0000000000000000E+00 
    1.0000000000000000E+00     1.7187499999963929E-01     0.0000000000000000E+00 
    1.0000000000000000E+00     1.8749999999959369E-01     0.0000000000000000E+00 
    1.0000000000000000E+00     2.0312499999954800E-01     0.0000000000000000E+00 
    1.0000000000000000E+00     2.1874999999950240E-01     0.0000000000000000E+00 
    1.0000000000000000E+00     2.3437499999945680E-01     0.0000000000000000E+00 
    1.0000000000000000E+00     2.4999999999941119E-01     0.0000000000000000E+00 
    1.0000000000000000E+00     2.6562499999936562E-01     0.0000000000000000E+00 
    1.0000000000000000E+00     2.8124999999931999E-01     0.0000000000000000E+00 
    1.0000000000000000E+00     2.9687499999927452E-01     0.0000000000000000E+00 
    1.0000000000000000E+00     3.1249999999922901E-01     0.0000000000000000E+00 
    1.0000000000000000E+00     3.2812499999918338E-01     0.0000000000000000E+00 
    1.0000000000000000E+00     3.4374999999913791E-01     0.0000000000000000E+00 
    1.0000000000000000E+00     3.5937499999909228E-01     0.0000000000000000E+00 
    1.0000000000000000E+00     3.7499999999904682E-01     0.0000000000000000E+00 
    1.0000000000000000E+00     3.9062499999900119E-01     0.0000000000000000E+00 
    1.0000000000000000E+00     4.0624999999895561E-01     0.0000000000000000E+00 
    1.0000000000000000E+00     4.2187499999891009E-01     0.0000000000000000E+00 
    1.0000000000000000E+00     4.3749999999886452E-01     0.0000000000000000E+00 
    1.0000000000000000E+00     4.5312499999881900E-01     0.0000000000000000E+00 
    1.0000000000000000E+00     4.6874999999877343E-01     0.0000000000000000E+00 
    1.0000000000000000E+00     4.8437499999873318E-01     0.0000000000000000E+00 
    1.0000000000000000E+00     4.9999999999869310E-01     0.0000000000000000E+00 
    1.0000000000000000E+00     5.1562499999872891E-01     0.0000000000000000E+00 
    1.0000000000000000E+00     5.3124999999876465E-01     0.0000000000000000E+00 
    1.0000000000000000E+00     5.4687499999880584E-01     0.0000000000000000E+00 
    1.0000000000000000E+00     5.6249999999884692E-01     0.0000000000000000E+00 
    1.0000000000000000E+00     5.7812499999888822E-01     0.0000000000000000E+00 
    1.0000000000000000E+00     5.9374999999892941E-01     0.0000000000000000E+00 
    1.0000000000000000E+00     6.0937499999897060E-01     0.0000000000000000E+00 
    1.0000000000000000E+00     6.2499999999901168E-01     0.0000000000000000E+00 
    1.0000000000000000E+00     6.4062499999905287E-01     0.0000000000000000E+00 
    1.0000000000000000E+00     6.5624999999909406E-01     0.0000000000000000E+00 
    1.0000000000000000E+00     6.7187499999913525E-01     0.0000000000000000E+00 
    1.0000000000000000E+00     6.8749999999917644E-01     0.0000000000000000E+00 
    1.0000000000000000E+00     7.0312499999921751E-01     0.0000000000000000E+00 
    1.0000000000000000E+00     7.1874999999925870E-01     0.0000000000000000E+00 
    1.0000000000000000E+00     7.3437499999930000E-01     0.0000000000000000E+00 
    1.0000000000000000E+00     7.4999999999934119E-01     0.0000000000000000E+00 
    1.0000000000000000E+00     7.6562499999938238E-01     0.0000000000000000E+00 
    1.0000000000000000E+00     7.8124999999942357E-01     0.0000000000000000E+00 
    1.0000000000000000E+00     7.9687499999946465E-01     0.0000000000000000E+00 
    1.0000000000000000E+00     8.1249999999950584E-01     0.0000000000000000E+00 
[...]
CELL_DATA 8088 
SCALARS Pressure float 1 
LOOKUP_TABLE default 

    4.4870235591127994E+00 
    4.3806368809656693E+00 
    4.3087462343863008E+00 
    4.0335629641210771E+00 
    4.1509144600871082E+00 
    4.2224428543472037E+00 
    3.8521127517677538E+00 
    3.6762091305452302E+00 
    3.7256776613053031E+00 
    3.3679938664620725E+00 
    3.5566859872453556E+00 
    3.5069583059468377E+00 
    2.4482173576632795E+00 
    2.5525862891071163E+00 
    2.6027626054895734E+00 
    2.8751861574776330E+00 
    2.7578110617486153E+00 
    2.7055701941753525E+00 
    4.7232301780593557E+00 
    4.7110394642116642E+00 
    4.8531370995727574E+00 
    4.1247226912070065E+00 
    4.2750607279035471E+00 
    4.1425779917187890E+00 
    5.0947645560881760E+00 
    5.1030715542327778E+00 
    4.9462482970959059E+00 
    5.6638481081137915E+00 
    5.4984115380909309E+00 
    5.5584959373160450E+00 
    2.3358475097743008E+00 
    2.4999100097804456E+00 
    2.4388105274012641E+00 
    4.5178548862952477E+00 
    4.6811634093735242E+00 
    4.6089697632828601E+00 
    3.4830758817820500E+00 
    3.3198161981518393E+00 
    3.3947483566339507E+00 
    4.5844806923871744E+00 
    4.4748050214146904E+00 
    4.5791786166666411E+00 
    3.9868662066211042E+00 
    4.0092457727449391E+00 
    3.8964578800638843E+00 
    4.3343744537346760E+00 
    4.3898602135057816E+00 
    4.4604228569645654E+00 
    4.8066573195407480E+00 
    4.9835154876894343E+00 
    4.8359135536557645E+00 
    4.6767436601136509E+00 
    4.5851148040571319E+00 
    4.5159723884030507E+00 
    5.0660515386154614E+00 
    4.8941219113272272E+00 
    4.9665703969852215E+00 
    4.6247360405671660E+00 
    4.8073413731444532E+00 
    4.7361689774990658E+00 
    6.1660254369460246E+00 
    6.1743789560040723E+00 
    6.3328544754730309E+00 
    6.8000147037310725E+00 
    6.9700749634948016E+00 
    6.8343466714853820E+00 
    2.8823841857085948E+00 
    2.9598387505399391E+00 
    2.8206596213267638E+00 
    7.7515637069673620E+00 
    7.6119923693275444E+00 
    7.6180595010537688E+00 
    6.9401258122516234E+00 
    6.8201183775766223E+00 
    6.7890961362714162E+00 
    2.9988297751448139E+00 
    3.1388513808640117E+00 
    3.0749637806145089E+00 
    5.3839120738510082E-01 
    7.3315702656983861E-01 
    6.5814353230480993E-01 
    6.7295279023716068E+00 
    6.6895354057694973E+00 
    6.5600186316714764E+00 
    6.4495525901090547E+00 
    6.4550562945622234E+00 
    6.5925235441570447E+00 
    3.7253890505936118E+00 
    3.7655619015386503E+00 
    3.8910772004736542E+00 
    6.4539246552872118E+00 
    6.3230070903268256E+00 
    6.2926721178185829E+00 
    6.0066083578989167E+00 
    6.1309161598205932E+00 
    6.1673495678442132E+00 
    3.4360925391109403E+00 
    3.5812992698565473E+00 
    3.4332469950385263E+00 
    2.8460856620942572E+00 
    2.8123384837162129E+00 
    2.9777919186668012E+00 
    3.4172736962006227E+00 
    3.5423387362478014E+00 
    3.5867476368783420E+00 
    3.8401136478275308E+00 
    3.7380098433376894E+00 
    3.6891724780001547E+00 
    4.5270999976266424E+00 
    4.6661038193606661E+00 
    4.5300596285127002E+00 
    5.7428643540602948E+00 
    5.6456650291066914E+00 
    5.5751358492214314E+00 
    6.1802281051774415E+00 
    6.3293777816472634E+00 
    6.3183668229637613E+00 
    8.4928022072530363E-01 
    1.0678428043347101E+00 
    9.7904685105271005E-01 
    6.2315990703308559E+00 
    6.0868042156091331E+00 
    6.0667067846890408E+00 
    6.6328925894195985E+00 
    6.4812754841078037E+00 
    6.4481178892823294E+00 
    1.4378268843555131E+00 
    1.3395726032420601E+00 
    1.2656912293516305E+00 
    9.0258876880849770E-01 
    7.2664085054842353E-01 
    7.9325551998032839E-01 
    6.4643351492829773E+00 
    6.5734680947109254E+00 
    6.6437015296301709E+00 
    3.4786619285599327E+00 
    3.4962339016064647E+00 
    3.6387669065299932E+00 
    6.0959642605430790E+00 
    6.2307337895430770E+00 
    6.0893729778471446E+00 
    6.0902688766724546E+00 
    6.2426763526605331E+00 
    6.2471806652749162E+00 
    1.5647136781823474E+00 
    1.6161306287173798E+00 
    1.4697287371170380E+00 
    3.0802002949256995E+00 
    3.2483154558236147E+00 
    3.0936743566666705E+00 
    3.3178395526115332E+00 
    3.1796432692336993E+00 
    3.3313587962581321E+00 
    6.0207502621924256E+00 
    6.1820876378441838E+00 
    6.0555744586024849E+00 
    3.4270609506995160E+00 
    3.3702984863462508E+00 
    3.5427789404175094E+00 
    3.3846075784315466E+00 
    3.3748828233141954E+00 
    3.2430181508281124E+00 
    3.5137049912219642E+00 
    3.6125216701317302E+00 
    3.5130902988383736E+00 
    6.2419350357807462E+00 
    6.3967310567228166E+00 
    6.3652276565544339E+00 
    6.8464945391008634E+00 
    6.9609399220528880E+00 
    7.0137973180519237E+00 
    5.3458472784516085E+00 
    5.2324343829319853E+00 
    5.4015113447383882E+00 
    2.6510309410051596E+00 
    2.7623575726003020E+00 
    2.5938567192377220E+00 
    4.6059097992239808E+00 
    4.4492184684214600E+00 
    4.5996609048919188E+00 
    4.4102689062659994E+00 
    4.5314559892120396E+00 
    4.3776399111931719E+00 
    6.7034974071385296E+00 
    6.5344777309795363E+00 
    6.6170261067371605E+00 
    6.6013589375012014E+00 
    6.5163149761001407E+00 
    6.4498651339277915E+00 
    9.8401841861563788E-01 
    1.1064918370796120E+00 
    1.1816085963104512E+00 
    4.2907735744278391E-01 
    6.2584866519133509E-01 
    5.6476019913183018E-01 
    1.6283037567708030E+00 
    1.5078947693692049E+00 
    1.7099497564321766E+00 
    9.2482389103195073E-01 
    1.0264298838994468E+00 
    8.2728377955339460E-01 
    3.0038355451286756E+00 
    3.0750830022126556E+00 
    2.8887617019527729E+00 
    2.8936328357779431E+00 
    2.8487904298549407E+00 
    3.0343468705845980E+00 
    2.1134355754436345E+00 
    2.2635811479689454E+00 
    2.0967904162795024E+00 
    2.2913498766172187E+00 
    2.1594247344157749E+00 
    2.3298417314826527E+00 
    3.7938800276954572E+00 
    3.9127542756984894E+00 
    3.9132072197270120E+00 
    6.2965910325354360E+00 
    6.1675917835446930E+00 
    6.2978891094982785E+00 
    4.9710883955378637E+00 
    5.1163974661959397E+00 
    5.1134023154222517E+00 
    5.4393417861376863E+00 
    5.2795928541643358E+00 
    5.2817898233582481E+00 
    9.8223604660264896E-01 
    1.1863103026593347E+00 
    1.1154731260883055E+00 
    4.0875513884353343E-01 
    5.2388694561337246E-01 
    6.1215153427795788E-01 
    5.3682760159591592E+00 
    5.4426783713159681E+00 
    5.5146641029898218E+00 
    1.0376932594824051E+00 
    9.2775562835899694E-01 
    1.0969763244326858E+00 
    2.4158165204022319E+00 
    2.5708364714485805E+00 
    2.4637079172091978E+00 
    1.6907588621521585E+00 
    1.7116109279133764E+00 
    1.8358793155154349E+00 
    5.9818023236790783E+00 
    5.8085239342806814E+00 
    5.9865304926530696E+00 
    5.7424584184057759E+00 
    5.8987297062066313E+00 
    5.7272933370997396E+00 
    7.3652045310122922E+00 
    7.4814752023380162E+00 
    7.4697637854262675E+00 
    6.5632768163412898E+00 
    6.6499757699027047E+00 
    6.6867475172207698E+00 
    9.3508758686909421E-01 
    9.1845285665154741E-01 
    1.1072880502586007E+00 
    2.7185660096308678E-01 
    2.6519825153942089E-01 
    4.4557774239546794E-01 
    3.8903890681204660E+00 
    3.7356259903879998E+00 
    3.7286970062636922E+00 
    7.2854718821212003E+00 
    7.1719073205760484E+00 
    7.1280461731170641E+00 
    2.2791313264177044E+00 
    2.3249532451710215E+00 
    2.1783923297789478E+00 
    1.5497497279546411E+00 
    1.4316969840757088E+00 
    1.5686238633561531E+00 
    6.2322159820832450E+00 
    6.3191607889303061E+00 
    6.3814394479952226E+00 
    5.4093201985999817E-01 
    6.7120756560089645E-01 
    7.3936224031476305E-01 
    3.7231048844075714E+00 
    3.7146257899491171E+00 
    3.8441089497763725E+00 
    6.7582785051274108E+00 
    6.7476985637269014E+00 
    6.8861361464405428E+00 
    1.2419524924249818E+00 
    1.2530919730551835E+00 
    1.1137580060313110E+00 
    5.7871304632176610E+00 
    5.9351767905794910E+00 
    5.8060764887454921E+00 
    2.2131644411234030E+00 
    2.0644090920590674E+00 
    2.1950434260044749E+00 
    3.9645182161247843E+00 
    3.8139500654958018E+00 
    3.9720693011642751E+00 
    4.8234906318085757E+00 
    4.9578122001058880E+00 
    4.9199021104229832E+00 
    6.1807652132118456E+00 
    5.9869401694050755E+00 
    6.1137950840181476E+00 
    6.9399603950483959E+00 
    6.7955674102608885E+00 
    6.8412380195785110E+00 
    6.9949808493889556E+00 
    7.0484443510398211E+00 
    7.1460604292826249E+00 
    4.9918438454994520E+00 
    4.9115249520373121E+00 
    5.0660521735172148E+00 
    3.7208508913292455E+00 
    3.5321200845868814E+00 
    3.6846740862260186E+00 
    3.0656120788825882E+00 
    3.0581048536634516E+00 
    2.8884784600685625E+00 
    3.5734281252846867E-01 
    5.2638815646388748E-01 
    4.9736475496312843E-01 
    9.8745434234537788E-01 
    1.1203628588599523E+00 
    1.1708487234705172E+00 
    2.5750648425709453E+00 
    2.6152009925543744E+00 
    2.4622208024119736E+00 
    3.2783075615049291E+00 
    3.2651681899692253E+00 
    3.3806859746052278E+00 
    1.7658933008864985E+00 
    1.6571138246566612E+00 
    1.7848615493476048E+00 
    6.1475882223698521E+00 
    6.3061353673690341E+00 
    6.2573248550566403E+00 
    6.5516566143085262E+00 
    6.4002337456825895E+00 
    6.4529980406278025E+00 
    5.7361729195647051E+00 
    5.6592620712864719E+00 
    5.5826219347042336E+00 
    5.3565626005657982E+00 
    5.4485002166414382E+00 
    5.5191349791662256E+00 
    4.0216244807954311E+00 
    4.2095437885551057E+00 
    4.1135493613938854E+00 
    3.3318987906378519E+00 
    3.4013098897343741E+00 
    3.5214553234111019E+00 
    6.1665703594553980E+00 
    6.0945760235843549E+00 
    5.9897035067330622E+00 
    6.4616584920539166E+00 
    6.6371840390569155E+00 
    6.5616205854345502E+00 
    6.9341176269737206E+00 
    6.9505715146864544E+00 
    6.8122159240782389E+00 
    1.7360124801938173E-01 
    3.3017224797579064E-01 
    3.1078941883058542E-01 
    6.8368595192162962E+00 
    6.7167361056661665E+00 
    6.6793104463407502E+00 
    8.9405380242774890E-02 
    2.2860253249577051E-01 
    9.5641611645288643E-02 
    7.9124247442562892E+00 
    7.7725919987947520E+00 
    7.9047258771174089E+00 
    7.8281880869610294E+00 
    7.6699109689487708E+00 
    7.6901208379553347E+00 
    1.0648806206750292E+00 
    1.0487127850814668E+00 
    1.1855899029130634E+00 
    1.1620614006597798E+00 
    1.2806120274982646E+00 
    1.3195161596681861E+00 
    4.5798466311841484E+00 
    4.5195653031048924E+00 
    4.4224834476583421E+00 
    1.6716688277685867E+00 
    1.5239254223459984E+00 
    1.5603684259009281E+00 
    1.2467383613736394E+00 
    1.4105584585704769E+00 
    1.3774691739542846E+00 
    3.6539976294234768E+00 
    3.5127786429769636E+00 
    3.4691286982711804E+00 
    3.1861130563081734E+00 
    3.3000832985019120E+00 
    3.3533285503456534E+00 
    2.9781836254102032E+00 
    2.8009066552450599E+00 
    2.8232193175016285E+00 
    2.4995577786356260E+00 
    2.6586815647764173E+00 
    2.6259731393756391E+00 
    1.9405745235299421E+00 
    1.7731826473062247E+00 
    1.8440069064971105E+00 
    1.5048751385114043E+00 
    1.6874274325866379E+00 
    1.6186263493119164E+00 
    3.0201913967891048E+00 
    3.1348733166060803E+00 
    3.1556288214931429E+00 
    6.1318519037615076E+00 
    6.1049174950787783E+00 
    6.2238329787613980E+00 
    6.6932078478433832E+00 
    6.4972749740117584E+00 
    6.6364847628543355E+00 
    5.0612217683783252E+00 
    5.1516526948983410E+00 
    5.0052657109973131E+00 
    4.4114526459992849E+00 
    4.3422041528839896E+00 
    4.2270670739842258E+00 
    4.7133686295305877E+00 
    4.8039151871097632E+00 
    4.6497959355325804E+00 
    3.5850163798170396E+00 
    3.7259671342026879E+00 
    3.7274809174209271E+00 
    3.0679060315773108E+00 
    3.0231599180860371E+00 
    3.1791500395513714E+00 
    6.3095709591617073E+00 
    6.2859544755034911E+00 
    6.1656662715169022E+00 
    6.5654312374370756E+00 
    6.7054009078381132E+00 
    6.6586994519449139E+00 
    1.7830778981348647E+00 
    1.9418811980583190E+00 
    1.9626331457506800E+00 
    7.0250572881406703E-01 
    8.6218380645705839E-01 
    8.4896298671899972E-01 
    6.0030957084182806E+00 
    5.8672554090629854E+00 
    5.9746201074964871E+00 
    7.2807128770241061E+00 
    7.0911851842248677E+00 
    7.1137603289767073E+00 
    5.4480951720278412E+00 
    5.4427122903312828E+00 
    5.2944759579896612E+00 
    3.9193196177214591E+00 
    3.8883654325016250E+00 
    4.0607537146769799E+00 
    6.8672039403292882E+00 
    6.8037739083784610E+00 
    6.9301784434523919E+00 
    1.1483826802928940E+00 
    1.1928089003431837E+00 
    1.3247799092493568E+00 
    4.6108501307354670E+00 
    4.6518915368258709E+00 
    4.5076334174933654E+00 
    3.9603770609199782E+00 
    3.8395574520205278E+00 
    3.9792657094641073E+00 
    1.3800556753678335E+00 
    1.3565440105042545E+00 
    1.5090963285094727E+00 
    1.6056614352347984E+00 
    1.5860152263263534E+00 
    1.4367750293121155E+00 
    5.1803658794750325E+00 
    5.3203507602237350E+00 
    5.2585615788885933E+00 
    4.5504888359861919E+00 
    4.6116280194109622E+00 
    4.4815933135332253E+00 
    4.7328232895649442E+00 
    4.7496492993333339E+00 
    4.8932684977394683E+00 
    5.0227041425983350E+00 
    5.1691953650603963E+00 
    5.1066472073246230E+00 
    4.3111185214414389E+00 
    4.4163164946703750E+00 
    4.2867643925135104E+00 
    5.8180032022407335E+00 
    5.9841091315025920E+00 
    5.8530304406602465E+00 
    3.4311844357820558E+00 
    3.4342873663049267E+00 
    3.3261226298120947E+00 
    1.6749960986262808E+00 
    1.5604165802626289E+00 
    1.5244722847385179E+00 
    1.7789298843340347E+00 
    1.8643838043420180E+00 
    1.9319957447761018E+00 
    2.1653398995809794E+00 
    2.0653277693802523E+00 
    2.0043725746958638E+00 
    1.4572714232163941E+00 
    1.3072980104141843E+00 
    1.3400283483143591E+00 
    1.0587245082196515E+00 
    1.2025201549191515E+00 
    1.1629273390443506E+00 
    7.3294814413518132E+00 
    7.3434732152379754E+00 
    7.1828006321291902E+00 
    4.8134884334062287E+00 
    4.9313431800778371E+00 
    4.9351222296517854E+00 
    4.1822106890767676E+00 
    4.3032174658691904E+00 
    4.3330178160996971E+00 
    2.4486604128789566E+00 
    2.3943134957217884E+00 
    2.5794135816891601E+00 
    4.9538510934887672E+00 
    4.9629001137655884E+00 
    4.8293568449374726E+00 
    1.1931957163989413E+00 
    1.3733786476617578E+00 
    1.3233227825762812E+00 
    2.2218258112253602E+00 
    2.3382579243084782E+00 
    2.3723486611622620E+00 
    2.5157023763217090E+00 
    2.5984775085312330E+00 
    2.4215337497845182E+00 
    2.7097184164314290E+00 
    2.7236354650751164E+00 
    2.8569268292620773E+00 
    2.9093250890454065E+00 
    2.9301717153484463E+00 
    2.7896901632826654E+00 
    3.3303060425667832E+00 
    3.4426340515662921E+00 
    3.5126119643048019E+00 
    5.3122508630967422E+00 
    5.1503207236458763E+00 
    5.2125890458624884E+00 
    6.8046097840882480E-01 
    8.3153693144447094E-01 
    8.5190787316599514E-01 
    1.7911941790770476E+00 
    1.8438676636580509E+00 
    1.6760553601094450E+00 
    3.7367888913220244E+00 
    3.6633102949843206E+00 
    3.5846499530985314E+00 
    4.3570440264070989E+00 
    4.2988641344351901E+00 
    4.2341074592674612E+00 
    2.5139906639230514E+00 
    2.5817528354257502E+00 
    2.4402334337537712E+00 
    2.3972192323317350E+00 
    2.5187910809914267E+00 
    2.3713806769482968E+00 
    5.0845737120976384E+00 
    5.0263724264337286E+00 
    4.9157043585290205E+00 
    4.7099287710034634E+00 
    4.7806313625312482E+00 
    4.8906552234727974E+00 
    4.7756735859501740E+00 
    4.9389014093400041E+00 
    4.8750724677910986E+00 
    7.3870459860627040E+00 
    7.3931056485253270E+00 
    7.2164267047384740E+00 
    6.0247174068628484E-01 
    7.7643583269830863E-01 
    6.1495227612310321E-01 
    4.0583697407695754E+00 
    4.1508511498325191E+00 
    4.2230370549047249E+00 
    4.4078342710409011E+00 
    4.3525244474718194E+00 
    4.2774413771203994E+00 
    6.3574397741676281E+00 
    6.2965498297354996E+00 
    6.4904740536304484E+00 
    6.4361238435761425E+00 
    6.5171551818849487E+00 
    6.3286476466788750E+00 
    5.7927995240298005E+00 
    5.6899730109339810E+00 
    5.8622876575091105E+00 
    2.2060584325015751E+00 
    2.3052272879628828E+00 
    2.1332795179496546E+00 
    4.8217244618668262E+00 
    4.9096176318089313E+00 
    4.7486403039512135E+00 
    3.1788095065442490E+00 
    3.0914134272983262E+00 
    3.2560289936275462E+00 
    4.5449241072507602E+00 
    4.4112176967661636E+00 
    4.4740009548488802E+00 
    6.7847087037678877E+00 
    6.8678593859288286E+00 
    6.6984669991873682E+00 
    6.6849257786489353E+00 
    6.6651413838096429E+00 
    6.8282312361687980E+00 
    3.5603704384180914E+00 
    3.3823935511031653E+00 
    3.4615113513428364E+00 
    2.7989332802180766E+00 
    2.7329173375392362E+00 
    2.6234008022571800E+00 
    3.7696225236281302E+00 
    3.6344112513232578E+00 
    3.7409899939990114E+00 
    2.6995468674048735E+00 
    2.5582186829807014E+00 
    2.6586848232869782E+00 
    1.9039824093096340E+00 
    1.9111102697649005E+00 
    2.0313651186969226E+00 
    2.1704680565901393E+00 
    2.3201265846164731E+00 
    2.1870050005726318E+00 
    3.2891779044274911E+00 
    3.2810409261671918E+00 
    3.1661196808708412E+00 
    5.3962415354214626E+00 
    5.2432287898187333E+00 
    5.2959991817638272E+00 
    5.8974901265698279E+00 
    5.8652608823641774E+00 
    6.0170868782693532E+00 
    7.3801991633863595E-01 
    8.6778654666248034E-01 
    7.4973866633754127E-01 
    6.3344595258813712E+00 
    6.4447831594904414E+00 
    6.2928819751795455E+00 
    2.1559483600364784E+00 
    2.2946386567372623E+00 
    2.1977647017078343E+00 
    2.3905032290348940E+00 
    2.3113770801983011E+00 
    2.2233773463512971E+00 
    6.9471285374574547E+00 
    6.7993496958452768E+00 
    6.8359324273484807E+00 
    6.3373494279664708E+00 
    6.4974670982716178E+00 
    6.3872230981591143E+00 
    1.6604454953272938E+00 
    1.5022931554217811E+00 
    1.6075338455859454E+00 
    5.4215820131878303E+00 
    5.4517995812441118E+00 
    5.5723962773693847E+00 
    2.5816647540981266E+00 
    2.5500975808561299E+00 
    2.4300736853722893E+00 
    3.4165263225385658E+00 
    3.5361817442812971E+00 
    3.3657849919059375E+00 
    2.5883211300923938E+00 
    2.5640782567207392E+00 
    2.7045799384859275E+00 
    1.6219210979241745E+00 
    1.4983891541270316E+00 
    1.4609019449887157E+00 
    2.5205265398347629E+00 
    2.3677227185594054E+00 
    2.3844922056053628E+00 
    6.1827360432277825E+00 
    6.1443439595325868E+00 
    6.0380830405064438E+00 
    6.5189798981539306E+00 
    6.3620315758341857E+00 
    6.5074218304973037E+00 
    6.3856968100042497E+00 
    6.5116503681162659E+00 
    6.5440668709666117E+00 
    5.4806687107075680E+00 
    5.6377057932820644E+00 
    5.6198895702698222E+00 
    1.0831177994493120E+00 
    1.0026828820322951E+00 
    1.1360232887958097E+00 
    2.4629957563166145E+00 
    2.3626931299979592E+00 
    2.3258481184166309E+00 
    2.6799815823594950E+00 
    2.7971859643857044E+00 
    2.6694951653949786E+00 
    1.2389351572939227E+00 
    1.1156299797109466E+00 
    1.2146694214972820E+00 
    6.9066112571670848E+00 
    6.9874129004865120E+00 
    7.0448314295756420E+00 
    6.6167419151397988E+00 
    6.4889816163785818E+00 
    6.5972581564755419E+00 
    1.3834887277993391E+00 
    1.5102886738227517E+00 
    1.4032642839719240E+00 