# vtk DataFile Version 2.0
Pressure Field Data 
ASCII 
DATASET UNSTRUCTURED_GRID 

POINTS 1089 float 

    0.0000000000000000E+00     0.0000000000000000E+00     0.0000000000000000E+00 
    1.0000000000000000E+00     0.0000000000000000E+00     0.0000000000000000E+00 
    1.0000000000000000E+00     1.0000000000000000E+00     0.0000000000000000E+00 
    0.0000000000000000E+00     1.0000000000000000E+00     0.0000000000000000E+00 
    3.1249999999941821E-02     0.0000000000000000E+00     0.0000000000000000E+00 
    6.2499999999872928E-02     0.0000000000000000E+00     0.0000000000000000E+00 
    9.3749999999823030E-02     0.0000000000000000E+00     0.0000000000000000E+00 
    1.2499999999977310E-01     0.0000000000000000E+00     0.0000000000000000E+00 
    1.5624999999968331E-01     0.0000000000000000E+00     0.0000000000000000E+00 
    1.8749999999959341E-01     0.0000000000000000E+00     0.0000000000000000E+00 
    2.1874999999950220E-01     0.0000000000000000E+00     0.0000000000000000E+00 
    2.4999999999941089E-01     0.0000000000000000E+00     0.0000000000000000E+00 
    2.8124999999931971E-01     0.0000000000000000E+00     0.0000000000000000E+00 
    3.1249999999922851E-01     0.0000000000000000E+00     0.0000000000000000E+00 
    3.4374999999913730E-01     0.0000000000000000E+00     0.0000000000000000E+00 
    3.7499999999904610E-01     0.0000000000000000E+00     0.0000000000000000E+00 
    4.0624999999895478E-01     0.0000000000000000E+00     0.0000000000000000E+00 
    4.3749999999886358E-01     0.0000000000000000E+00     0.0000000000000000E+00 
    4.6874999999877792E-01     0.0000000000000000E+00     0.0000000000000000E+00 
    4.9999999999869210E-01     0.0000000000000000E+00     0.0000000000000000E+00 
    5.3124999999876910E-01     0.0000000000000000E+00     0.0000000000000000E+00 
    5.6249999999884603E-01     0.0000000000000000E+00     0.0000000000000000E+00 
    5.9374999999892841E-01     0.0000000000000000E+00     0.0000000000000000E+00 
    6.2499999999901090E-01     0.0000000000000000E+00     0.0000000000000000E+00 
    6.5624999999909328E-01     0.0000000000000000E+00     0.0000000000000000E+00 
    6.8749999999917577E-01     0.0000000000000000E+00     0.0000000000000000E+00 
    7.1874999999925815E-01     0.0000000000000000E+00     0.0000000000000000E+00 
    7.4999999999934064E-01     0.0000000000000000E+00     0.0000000000000000E+00 
    7.8124999999942302E-01     0.0000000000000000E+00     0.0000000000000000E+00 
    8.1249999999950551E-01     0.0000000000000000E+00     0.0000000000000000E+00 
    8.4374999999958789E-01     0.0000000000000000E+00     0.0000000000000000E+00 
    8.7499999999967026E-01     0.0000000000000000E+00     0.0000000000000000E+00 
    9.0624999999975264E-01     0.0000000000000000E+00     0.0000000000000000E+00 
    9.3749999999983513E-01     0.0000000000000000E+00     0.0000000000000000E+00 
    9.6874999999991751E-01     0.0000000000000000E+00     0.0000000000000000E+00 
    1.0000000000000000E+00     3.1249999999941821E-02     0.0000000000000000E+00 
    1.0000000000000000E+00     6.2499999999872928E-02     0.0000000000000000E+00 
    1.0000000000000000E+00     9.3749999999823030E-02     0.0000000000000000E+00 
    1.0000000000000000E+00     1.2499999999977310E-01     0.0000000000000000E+00 
    1.0000000000000000E+00     1.5624999999968331E-01     0.0000000000000000E+00 
    1.0000000000000000E+00     1.8749999999959341E-01     0.0000000000000000E+00 
    1.0000000000000000E+00     2.1874999999950220E-01     0.0000000000000000E+00 
    1.0000000000000000E+00     2.4999999999941089E-01     0.0000000000000000E+00 
    1.0000000000000000E+00     2.8124999999931971E-01     0.0000000000000000E+00 
    1.0000000000000000E+00     3.1249999999922851E-01     0.0000000000000000E+00 
    1.0000000000000000E+00     3.4374999999913730E-01     0.0000000000000000E+00 
    1.0000000000000000E+00     3.7499999999904610E-01     0.0000000000000000E+00 
    1.0000000000000000E+00     4.0624999999895478E-01     0.0000000000000000E+00 
    1.0000000000000000E+00     4.3749999999886358E-01     0.0000000000000000E+00 
    1.0000000000000000E+00     4.6874999999877792E-01     0.0000000000000000E+00 
    1.0000000000000000E+00     4.9999999999869210E-01     0.0000000000000000E+00 
    1.0000000000000000E+00     5.3124999999876910E-01     0.0000000000000000E+00 
    1.0000000000000000E+00     5.6249999999884603E-01     0.0000000000000000E+00 
    1.0000000000000000E+00     5.9374999999892841E-01     0.0000000000000000E+00 
    1.0000000000000000E+00     6.2499999999901090E-01     0.0000000000000000E+00 
    1.0000000000000000E+00     6.5624999999909328E-01     0.0000000000000000E+00 
    1.0000000000000000E+00     6.8749999999917577E-01     0.0000000000000000E+00 
    1.0000000000000000E+00     7.1874999999925815E-01     0.0000000000000000E+00 
    1.0000000000000000E+00     7.4999999999934064E-01     0.0000000000000000E+00 
    1.0000000000000000E+00     7.8124999999942302E-01     0.0000000000000000E+00 
    1.0000000000000000E+00     8.1249999999950551E-01     0.0000000000000000E+00 
    1.0000000000000000E+00     8.4374999999958789E-01     0.0000000000000000E+00 
    1.0000000000000000E+00     8.7499999999967026E-01     0.0000000000000000E+00 
    1.0000000000000000E+00     9.0624999999975264E-01     0.0000000000000000E+00 
    1.0000000000000000E+00     9.3749999999983513E-01     0.0000000000000000E+00 
    1.0000000000000000E+00     9.6874999999991751E-01     0.0000000000000000E+00 
    9.6874999999986700E-01     1.0000000000000000E+00     0.0000000000000000E+00 
    9.3749999999973976E-01     1.0000000000000000E+00     0.0000000000000000E+00 
    9.0624999999967670E-01     1.0000000000000000E+00     0.0000000000000000E+00 
    8.7499999999950118E-01     1.0000000000000000E+00     0.0000000000000000E+00 
    8.4374999999971556E-01     1.0000000000000000E+00     0.0000000000000000E+00 
    8.1249999999991318E-01     1.0000000000000000E+00     0.0000000000000000E+00 
    7.8125000000010270E-01     1.0000000000000000E+00     0.0000000000000000E+00 
    7.5000000000034706E-01     1.0000000000000000E+00     0.0000000000000000E+00 
    7.1875000000056688E-01     1.0000000000000000E+00     0.0000000000000000E+00 
    6.8750000000078049E-01     1.0000000000000000E+00     0.0000000000000000E+00 
    6.5625000000097422E-01     1.0000000000000000E+00     0.0000000000000000E+00 
    6.2500000000121403E-01     1.0000000000000000E+00     0.0000000000000000E+00 
    5.9375000000151579E-01     1.0000000000000000E+00     0.0000000000000000E+00 
    5.6250000000164757E-01     1.0000000000000000E+00     0.0000000000000000E+00 
    5.3125000000182365E-01     1.0000000000000000E+00     0.0000000000000000E+00 
    5.0000000000205946E-01     1.0000000000000000E+00     0.0000000000000000E+00 
    4.6875000000194023E-01     1.0000000000000000E+00     0.0000000000000000E+00 
    4.3750000000182099E-01     1.0000000000000000E+00     0.0000000000000000E+00 
    4.0625000000169093E-01     1.0000000000000000E+00     0.0000000000000000E+00 
    3.7500000000156092E-01     1.0000000000000000E+00     0.0000000000000000E+00 
    3.4375000000143069E-01     1.0000000000000000E+00     0.0000000000000000E+00 
    3.1250000000130068E-01     1.0000000000000000E+00     0.0000000000000000E+00 
    2.8125000000117062E-01     1.0000000000000000E+00     0.0000000000000000E+00 
    2.5000000000104050E-01     1.0000000000000000E+00     0.0000000000000000E+00 
    2.1875000000091041E-01     1.0000000000000000E+00     0.0000000000000000E+00 
    1.8750000000078040E-01     1.0000000000000000E+00     0.0000000000000000E+00 
    1.5625000000065031E-01     1.0000000000000000E+00     0.0000000000000000E+00 
    1.2500000000052031E-01     1.0000000000000000E+00     0.0000000000000000E+00 
    9.3750000000390132E-02     1.0000000000000000E+00     0.0000000000000000E+00 
    6.2500000000260125E-02     1.0000000000000000E+00     0.0000000000000000E+00 
    3.1250000000130007E-02     1.0000000000000000E+00     0.0000000000000000E+00 
    0.0000000000000000E+00     9.6874999999986700E-01     0.0000000000000000E+00 
    0.0000000000000000E+00     9.3749999999973976E-01     0.0000000000000000E+00 
    0.0000000000000000E+00     9.0624999999967670E-01     0.0000000000000000E+00 
    0.0000000000000000E+00     8.7499999999950118E-01     0.0000000000000000E+00 
    0.0000000000000000E+00     8.4374999999971556E-01     0.0000000000000000E+00 
    0.0000000000000000E+00     8.1249999999991318E-01     0.0000000000000000E+00 
    0.0000000000000000E+00     7.8125000000010270E-01     0.0000000000000000E+00 
    0.0000000000000000E+00     7.5000000000034706E-01     0.0000000000000000E+00 
    0.0000000000000000E+00     7.1875000000056688E-01     0.0000000000000000E+00 
    0.0000000000000000E+00     6.8750000000078049E-01     0.0000000000000000E+00 
    0.0000000000000000E+00     6.5625000000097422E-01     0.0000000000000000E+00 
    0.0000000000000000E+00     6.2500000000121403E-01     0.0000000000000000E+00 
    0.0000000000000000E+00     5.9375000000151579E-01     0.0000000000000000E+00 
    0.0000000000000000E+00     5.6250000000164757E-01     0.0000000000000000E+00 
    0.0000000000000000E+00     5.3125000000182365E-01     0.0000000000000000E+00 
    0.0000000000000000E+00     5.0000000000205946E-01     0.0000000000000000E+00 
    0.0000000000000000E+00     4.6875000000194023E-01     0.0000000000000000E+00 
    0.0000000000000000E+00     4.3750000000182099E-01     0.0000000000000000E+00 
    0.0000000000000000E+00     4.0625000000169093E-01     0.0000000000000000E+00 
    0.0000000000000000E+00     3.7500000000156092E-01     0.0000000000000000E+00 
    0.0000000000000000E+00     3.4375000000143069E-01     0.0000000000000000E+00 
    0.0000000000000000E+00     3.1250000000130068E-01     0.0000000000000000E+00 
    0.0000000000000000E+00     2.8125000000117062E-01     0.0000000000000000E+00 
[...]
CELL_DATA 1024 
SCALARS Pressure float 1 
LOOKUP_TABLE default 

   -2.7270768210286666E-04 
   -8.1812296518403438E-04 
   -8.1812272181066800E-04 
   -2.7270760097838735E-04 
   -2.7270743872942368E-04 
   -8.1812223506382432E-04 
   -8.1812150494366218E-04 
   -2.7270719535601231E-04 
   -2.7270687085822597E-04 
   -8.1812053145040049E-04 
   -8.1811931458432654E-04 
   -2.7270646523616101E-04 
   -2.7270597848993744E-04 
   -8.1811785434580042E-04 
   -8.1811615073525915E-04 
   -2.7270541061970082E-04 
   -2.7270476162562045E-04 
   -8.1811420375320983E-04 
   -8.1811201340023195E-04 
   -2.7270403150788877E-04 
   -2.7270322026672333E-04 
   -8.1810957967697734E-04 
   -8.1810690258416916E-04 
   -2.7270232790236541E-04 
   -2.7270135441508027E-04 
   -8.1810398212260377E-04 
   -8.1810081829314959E-04 
   -2.7270029980515722E-04 
   -2.7269916407290858E-04 
   -8.1809741109674480E-04 
   -8.1809376053439131E-04 
   -2.7269794721867060E-04 
   -2.7269664924281365E-04 
   -8.1808986660720704E-04 
   -8.1808572931634947E-04 
   -2.7269527014572344E-04 
   -2.7269380992779872E-04 
   -8.1808134866301428E-04 
   -8.1807672464852580E-04 
   -2.7269226858948344E-04 
   -2.7269064613123713E-04 
   -8.1807185727426218E-04 
   -8.1806674654165911E-04 
   -2.7268894255353196E-04 
   -2.7268715785688428E-04 
   -8.1806139245224694E-04 
   -8.1805579500761946E-04 
   -2.7268529204182561E-04 
   -2.7268334510890453E-04 
   -8.1804995420943385E-04 
   -8.1804387005943125E-04 
   -2.7268131705870258E-04 
   -2.7267920789182334E-04 
   -8.1803754255942152E-04 
   -8.1803097171128422E-04 
   -2.7267701760889376E-04 
   -2.7267474621056706E-04 
   -8.1802415751698067E-04 
   -8.1801709997853954E-04 
   -2.7267239369751980E-04 
   -2.7266996007044953E-04 
   -8.1800979909805148E-04 
   -8.1800225487769151E-04 
   -2.7266744533008020E-04 
   -1.3635380048917078E-03 
   -1.9089526389769644E-03 
   -1.9089520711058957E-03 
   -1.3635375992694834E-03 
   -1.3635367880248878E-03 
   -1.9089509353637847E-03 
   -1.9089492317509132E-03 
   -1.3635355711581897E-03 
   -1.3635339486697459E-03 
   -1.9089469602677652E-03 
   -1.9089441209150034E-03 
   -1.3635319205600265E-03 
   -1.3635294868296298E-03 
   -1.9089407136934683E-03 
   -1.9089367386041813E-03 
   -1.3635266474792916E-03 
   -1.3635234025098540E-03 
   -1.9089321956483238E-03 
   -1.9089270848272452E-03 
   -1.3635197519222811E-03 
   -1.3635156957176619E-03 
   -1.9089214061424695E-03 
   -1.9089151595956832E-03 
   -1.3635112338972004E-03 
   -1.3635063664622249E-03 
   -1.9089083451887465E-03 
   -1.9089009629236903E-03 
   -1.3635010934141851E-03 
   -1.3634954147546494E-03 
   -1.9088930128027199E-03 
   -1.9088844948282266E-03 
   -1.3634893304852991E-03 
   -1.3634828406079494E-03 
   -1.9088754090026562E-03 
   -1.9088657553286783E-03 
   -1.3634759451245264E-03 
   -1.3634686440370772E-03 
   -1.9088555338092677E-03 
   -1.9088447444474696E-03 
   -1.3634609373477866E-03 
   -1.3634528250589494E-03 
   -1.9088333872464744E-03 
   -1.9088214622096573E-03 
   -1.3634443071729736E-03 
   -1.3634353836923898E-03 
   -1.9088089693405587E-03 
   -1.9087959086428960E-03 
   -1.3634260546198543E-03 
   -1.3634163199581419E-03 
   -1.9087822801205558E-03 
   -1.9087680837775920E-03 
   -1.3634061797101491E-03 
   -1.3633956338788948E-03 
   -1.9087533196182334E-03 
   -1.9087379876468783E-03 
   -1.3633846824675135E-03 
   -1.3633733254792618E-03 
   -1.9087220878680582E-03 
   -1.9087056202865026E-03 
   -1.3633615629175186E-03 
   -1.3633493947857829E-03 
   -1.9086885849071396E-03 
   -1.9086709817350285E-03 
   -1.3633368210876763E-03 
   -2.4543667051906684E-03 
   -2.9997800412841563E-03 
   -2.9997791489162883E-03 
   -2.4543659750710370E-03 
   -2.4543645148317737E-03 
   -2.9997773641803277E-03 
   -2.9997746870767963E-03 
   -2.4543623244732415E-03 
   -2.4543594039960681E-03 
   -2.9997711176064771E-03 
   -2.9997666557704172E-03 
   -2.4543557534011111E-03 
   -2.4543513726894548E-03 
   -2.9997613015699419E-03 
   -2.9997550550066570E-03 
   -2.4543462618624081E-03 
   -2.4543404209214866E-03 
   -2.9997479160824144E-03 
   -2.9997398847993297E-03 
   -2.4543338498684243E-03 
   -2.4543265487051869E-03 
   -2.9997309611598032E-03 
   -2.9997211451664859E-03 
   -2.4543185174339386E-03 
   -2.4543097560570698E-03 
   -2.9997104368222989E-03 
   -2.9996988361304321E-03 
   -2.4543002645771965E-03 
   -2.4542900429971484E-03 
   -2.9996863430943386E-03 
   -2.9996729577177381E-03 
   -2.4542790913199965E-03 
   -2.4542674095488952E-03 
   -2.9996586800045710E-03 
   -2.9996435099590830E-03 
   -2.4542549976872903E-03 
   -2.4542418557389869E-03 
   -2.9996274475858286E-03 
   -2.9996104928895879E-03 
   -2.4542279837078992E-03 
   -2.4542133815981314E-03 
   -2.9995926458753954E-03 
   -2.9995739065485569E-03 
   -2.4541980494140188E-03 
   -2.4541819871601264E-03 
   -2.9995542749146516E-03 
   -2.9995337509795138E-03 
   -2.4541651948412273E-03 
   -2.4541476724623166E-03 
   -2.9995123347492502E-03 
   -2.9994900262302320E-03 
   -2.4541294200286102E-03 
   -2.4541104375455400E-03 
   -2.9994668254290989E-03 
   -2.9994427323527511E-03 
   -2.4540907250187607E-03 
   -2.4540702824541057E-03 
   -2.9994177470083461E-03 
   -2.9993918694033142E-03 
   -2.4540491098576545E-03 
   -2.4540272072357378E-03 
   -2.9993650995453671E-03 
   -2.9993374374424672E-03 
   -2.4540045745948635E-03 
   -3.5451924850091999E-03 
   -4.0906038741176506E-03 
   -4.0906026572540503E-03 
   -3.5451914303933178E-03 
   -3.5451893211611990E-03 
   -4.0906002235263951E-03 
   -4.0905965729354076E-03 
   -3.5451861573134701E-03 
   -3.5451819388510651E-03 
   -4.0905917054821737E-03 
   -4.0905856211681402E-03 
   -3.5451766657752333E-03 
   -3.5451703380875422E-03 
   -4.0905783199951164E-03 
   -4.0905698019652725E-03 
   -3.5451629557898779E-03 
   -3.5451545188844354E-03 
   -4.0905600670811436E-03 
   -4.0905491153456278E-03 
   -3.5451450273737239E-03 
   -3.5451344812605671E-03 
   -4.0905369467619810E-03 
   -4.0905235613338227E-03 
   -3.5451228805481014E-03 
   -3.5451102252397845E-03 
   -4.0905089590651360E-03 
   -4.0904931399602645E-03 
   -3.5450965153393742E-03 
   -3.5450817508509524E-03 
   -4.0904761040239136E-03 
   -4.0904578512611532E-03 
   -3.5450659317789110E-03 
   -3.5450490581279428E-03 
   -4.0904383816774068E-03 
   -4.0904176952784666E-03 
   -3.5450311299030663E-03 
   -3.5450121471096302E-03 
   -4.0903957920704909E-03 
   -4.0903726720599937E-03 
   -3.5449921097532823E-03 
   -3.5449710178399783E-03 
   -4.0903483352538557E-03 
   -4.0903227816593149E-03 
   -3.5449488713759935E-03 
   -3.5449256703679178E-03 
   -4.0902960112839731E-03 
   -4.0902680241357943E-03 
   -3.5449014148226507E-03 
   -3.5448761047474067E-03 
   -4.0902388202231016E-03 
   -4.0902083995545827E-03 
   -3.5448497401497163E-03 
   -3.5448223210374245E-03 
   -4.0901767621392910E-03 
   -4.0901439079866356E-03 
   -3.5447938474186848E-03 
   -3.5447643193019639E-03 
   -4.0901098371063866E-03 
   -4.0900745495086816E-03 
   -3.5447337366960479E-03 
   -3.5447020996100358E-03 
   -4.0900380452040183E-03 
   -4.0900003242032553E-03 
   -3.5446694080533410E-03 
   -4.6360140463616757E-03 
   -5.1814228394937815E-03 
   -5.1814212981358488E-03 
   -4.6360126672507053E-03 
   -4.6360099090282320E-03 
   -5.1814182154193752E-03 
   -5.1814135913452759E-03 
   -4.6360057716950754E-03 
   -4.6360002552524628E-03 
   -5.1814074259149273E-03 
   -5.1813997191301631E-03 
   -4.6359933597020387E-03 
   -4.6359850850458528E-03 
   -5.1813904709932758E-03 
   -5.1813796815070139E-03 
   -4.6359754312863622E-03 
   -4.6359643984264457E-03 
   -5.1813673506745910E-03 
   -5.1813534784996736E-03 
   -4.6359519864693829E-03 
   -4.6359381954188669E-03 
   -5.1813380649863893E-03 
   -5.1813211101393239E-03 
   -4.6359230252789969E-03 
   -4.6359064760542884E-03 
   -5.1813026139635168E-03 
   -5.1812825764644748E-03 
   -4.6358885477496637E-03 
   -4.6358692403704570E-03 
   -5.1812609976481560E-03 
   -5.1812378775209812E-03 
   -4.6358485539224102E-03 
   -4.6358264884116766E-03 
   -5.1812132160898262E-03 
   -5.1811870133620288E-03 
   -4.6358030438448227E-03 
   -4.6357782202288223E-03 
   -5.1811592693453848E-03 
   -5.1811299840481446E-03 
   -4.6357520175710574E-03 
   -4.6357244358793230E-03 
   -5.1810991574790209E-03 
   -5.1810667896471851E-03 
   -4.6356954751618261E-03 
   -4.6356651354271814E-03 
   -5.1810328805622649E-03 
   -5.1809974302343496E-03 
   -4.6356334166844171E-03 
   -4.6356003189429633E-03 
   -5.1809604386739818E-03 
   -5.1809219058921675E-03 
   -4.6355658422126697E-03 
   -4.6355299865037903E-03 
   -5.1808818319003715E-03 
   -5.1808402167105088E-03 
   -4.6354927518269936E-03 
   -4.6354541381933524E-03 
   -5.1807970603349645E-03 
   -5.1807523627865728E-03 
   -4.6354141456143557E-03 
   -4.6353727741019002E-03 
   -5.1807061240786304E-03 
   -5.1806583442248954E-03 
   -4.6353300236682930E-03 
   -5.7268300912668851E-03 
   -6.2722356394343615E-03 
   -6.2722337735839264E-03 
   -5.7268283876624479E-03 
   -5.7268249804528892E-03 
   -6.2722300418823007E-03 
   -6.2722244443305895E-03 
   -5.7268198696392254E-03 
   -5.7268130552229728E-03 
   -6.2722169809304581E-03 
   -6.2722076516841356E-03 
   -5.7268045372061618E-03 
   -5.7267943155913251E-03 
   -6.2721964565943880E-03 
   -6.2721833956645495E-03 
   -5.7267823903815011E-03 
   -5.7267687615802391E-03 
   -6.2721684688985049E-03 
   -6.2721516763006926E-03 
   -5.7267534291915948E-03 
   -5.7267363932201280E-03 
   -6.2721330178761104E-03 
   -6.2721124936303109E-03 
   -5.7267176536709066E-03 
   -5.7266972105495051E-03 
   -6.2720901035693954E-03 
   -6.2720658477000259E-03 
   -5.7266750638620065E-03 
   -5.7266512136149956E-03 
   -6.2720397260294216E-03 
   -6.2720117385653470E-03 
   -5.7266256598155710E-03 
   -5.7265984024713334E-03 
   -6.2719818853161323E-03 
   -6.2719501662906532E-03 
   -5.7265694415903875E-03 
   -5.7265387771813520E-03 
   -6.2719165814983501E-03 
   -6.2718811309492081E-03 
   -5.7265064092533484E-03 
   -5.7264723378160024E-03 
   -6.2718438146537811E-03 
   -6.2718046326231663E-03 
   -5.7264365628794571E-03 
   -5.7263990844543490E-03 
   -6.2717635848690166E-03 
   -6.2717206714035479E-03 
   -5.7263599025518279E-03 
   -5.7263190171835511E-03 
   -6.2716758922395244E-03 
   -6.2716292473902644E-03 
   -5.7262764283616810E-03 
   -5.7262321360988851E-03 
   -6.2715807368696466E-03 
   -6.2715303606921029E-03 
   -5.7261861404083398E-03 
   -5.7261384413037283E-03 
   -6.2714781188726136E-03 
   -6.2714240114267183E-03 
   -5.7260890387992400E-03 
   -5.7260379329095654E-03 
   -6.2713680383705206E-03 
   -6.2713101997206675E-03 
   -5.7259851236499170E-03 
   -6.8176393217500939E-03 
   -7.3630409759685208E-03 
   -7.3630387856278142E-03 
   -6.8176372936542204E-03 
   -6.8176332374616320E-03 
   -7.3630344049454731E-03 
   -7.3630278339228078E-03 
   -6.8176271531735404E-03 
   -6.8176190407917550E-03 
   -7.3630190725617762E-03 
   -7.3630081208649898E-03 
   -6.8176089003186896E-03 
   -6.8175967317573626E-03 
   -7.3629949788357012E-03 
   -7.3629796464778231E-03 
   -6.8175825351113927E-03 
   -6.8175663103850056E-03 
   -7.3629621237959143E-03 
   -7.3629424107951860E-03 
   -6.8175480575830222E-03 
   -6.8175277767108721E-03 
   -7.3629205074815015E-03 
   -7.3628964138613799E-03 
   -6.8175054677745966E-03 
   -6.8174811307808256E-03 
   -7.3628701299419883E-03 
   -7.3628416557311544E-03 
   -6.8174547657368035E-03 
   -6.8174263726503721E-03 
   -7.3628109912373483E-03 
   -7.3627781364696927E-03 
   -6.8173959515299802E-03 
   -6.8173635023846676E-03 
   -7.3627430914379368E-03 
   -7.3627058561525089E-03 
   -6.8173290252240872E-03 
   -6.8172925200585040E-03 
   -7.3626664306245017E-03 
   -7.3626248148656419E-03 
   -6.8172539868987733E-03 
   -6.8172134257563606E-03 
   -7.3625810088883111E-03 
   -7.3625350127055362E-03 
   -6.8171708366433319E-03 
   -6.8171262195723557E-03 
   -7.3624868263309990E-03 
   -7.3624364497790369E-03 
   -6.8170795745567019E-03 
   -6.8170309016102491E-03 
   -7.3623838830646363E-03 
   -7.3623291262034322E-03 
   -6.8169802007474771E-03 
   -6.8169274719834701E-03 
   -7.3622721792117232E-03 
   -7.3622130421064618E-03 
   -6.8168727153339204E-03 
   -6.8168159308150929E-03 
   -7.3621517149051862E-03 
   -7.3620881976261430E-03 
   -6.8167571184438820E-03 
   -6.8166962782378066E-03 
   -7.3620224902882876E-03 
   -7.3619545929111711E-03 
   -6.8166334102149652E-03 
   -7.9084404398447085E-03 
   -8.4538375511343505E-03 
   -8.4538350363059372E-03 
   -7.9084380872598090E-03 
   -7.9084333820890109E-03 
   -8.4538300066480821E-03 
   -8.4538224621622700E-03 
   -7.9084263243337227E-03 
   -7.9084169139960504E-03 
   -8.4538124028507560E-03 
   -8.4537998287165326E-03 
   -7.9084051510787991E-03 
   -7.9083910355854572E-03 
   -8.4537847397633346E-03 
   -8.4537671359956532E-03 
   -7.9083745675202280E-03 
   -7.9083557468880121E-03 
   -8.4537470174187238E-03 
   -8.4537243840385277E-03 
   -7.9083345736943988E-03 
   -7.9083110479456833E-03 
   -8.4536992358617696E-03 
   -8.4536715728959263E-03 
   -7.9082851696488671E-03 
   -7.9082569388116610E-03 
   -8.4536413951492514E-03 
   -8.4536087026307744E-03 
   -7.9082263554424714E-03 
   -7.9081934195504352E-03 
   -8.4535734953502771E-03 
   -8.4535357733182236E-03 
   -7.9081581311453084E-03 
   -7.9081204902375270E-03 
   -8.4534955365456951E-03 
   -8.4534527850446319E-03 
   -7.9080804968383323E-03 
   -7.9080381509596311E-03 
   -8.4534075188278362E-03 
   -8.4533597379087728E-03 
   -7.9079934526140212E-03 
   -7.9079464018147992E-03 
   -8.4533094423016562E-03 
   -8.4532566320214449E-03 
   -7.9078969985759591E-03 
   -7.9078452429121957E-03 
   -8.4532013070838501E-03 
   -8.4531434675053311E-03 
   -7.9077911348389100E-03 
   -7.9077346743721948E-03 
   -8.4530831133030962E-03 
   -8.4530202444950929E-03 
   -7.9076758615288442E-03 
   -7.9076146963263649E-03 
   -8.4529548611000319E-03 
   -8.4528869631373613E-03 
   -7.9075511787829664E-03 
   -7.9074853089174842E-03 
   -8.4528165506272696E-03 
   -8.4527436235907003E-03 
   -7.9074170867495189E-03 
   -7.9073465122994294E-03 
   -8.4526681820493634E-03 
   -8.4525902260257045E-03 
   -7.9072735855882093E-03 
   -8.9992321475951577E-03 
   -9.5446240669842756E-03 
   -9.5446212276707725E-03 
   -8.9992294705238656E-03 
   -8.9992241163803100E-03 
   -9.5446155490429840E-03 
   -9.5446070311026015E-03 
   -8.9992160851660886E-03 
   -8.9992053768835883E-03 
   -9.5445956738521645E-03 
   -9.5445814772950541E-03 
   -8.9991919915359993E-03 
   -8.9991759291272923E-03 
   -9.5445644414354890E-03 
   -9.5445445662785417E-03 
   -8.9991571896622605E-03 
   -8.9991357731464688E-03 
   -9.5445218518301206E-03 
   -9.5444962980969807E-03 
   -8.9991116795862854E-03 
   -8.9990849089888539E-03 
   -9.5444679050867183E-03 
   -9.5444366728077781E-03 
   -8.9990554613621210E-03 
   -8.9990233367148748E-03 
   -9.5444026012694496E-03 
   -9.5443656904819034E-03 
   -8.9989885350567327E-03 
   -8.9989510563980874E-03 
   -9.5443259404561307E-03 
   -9.5442833512039537E-03 
   -8.9989109007501140E-03 
   -8.9988680681246189E-03 
   -9.5442379227380081E-03 
   -9.5441896550717779E-03 
   -8.9988225585342745E-03 
   -8.9987743719927103E-03 
   -9.5441385482196422E-03 
   -9.5440846021968163E-03 
   -8.9987235085142690E-03 
   -8.9986699681140810E-03 
   -9.5440278170193515E-03 
   -9.5439681927041373E-03 
   -8.9986137508080745E-03 
   -8.9985548566129721E-03 
   -9.5439057292689075E-03 
   -9.5438404267322464E-03 
   -8.9984932855462930E-03 
   -8.9984290376263522E-03 
   -9.5437722851135810E-03 
   -9.5437013044331834E-03 
   -8.9983621128722647E-03 
   -8.9982925113039416E-03 
   -9.5436274847121721E-03 
   -9.5435508259725244E-03 
   -8.9982202329420887E-03 
   -8.9981452778082009E-03 
   -9.5434713282370066E-03 
   -9.5433889915292787E-03 
   -8.9980676459245693E-03 
   -8.9979873373142814E-03 
   -9.5433038158738558E-03 
   -9.5432158012958863E-03 
   -8.9979043520011254E-03 
   -1.0090013147058307E-02 
   -1.0635399225576032E-02 
   -1.0635396061780648E-02 
   -1.0090010145503423E-02 
   -1.0090004142393083E-02 
   -1.0635389734189536E-02 
   -1.0635380242804571E-02 
   -1.0089995137729070E-02 
   -1.0089983131514078E-02 
   -1.0635367587628588E-02 
   -1.0635351768665341E-02 
   -1.0089968123751666E-02 
   -1.0089950114446307E-02 
   -1.0635332785919542E-02 
   -1.0635310639396836E-02 
   -1.0089929103603356E-02 
   -1.0089905091229064E-02 
   -1.0635285329103815E-02 
   -1.0635256855048004E-02 
   -1.0089878077330574E-02 
   -1.0089848061915917E-02 
   -1.0635225217237875E-02 
   -1.0635190415682835E-02 
   -1.0089815044994023E-02 
   -1.0089779026574716E-02 
   -1.0635152450393244E-02 
   -1.0635111321380395E-02 
   -1.0089740006668721E-02 
   -1.0089697985287647E-02 
   -1.0635067028656521E-02 
   -1.0635019572234804E-02 
   -1.0089652962443987E-02 
   -1.0089604938151142E-02 
   -1.0634968952129356E-02 
   -1.0634915168355231E-02 
   -1.0089553912423376E-02 
   -1.0089499885275873E-02 
   -1.0634858220928431E-02 
   -1.0634798109865895E-02 
   -1.0089442856724711E-02 
   -1.0089382826786857E-02 
   -1.0634734835185506E-02 
   -1.0634668396906089E-02 
   -1.0089319795480165E-02 
   -1.0089253762823391E-02 
   -1.0634598795047410E-02 
   -1.0634526029630173E-02 
   -1.0089184728836171E-02 
   -1.0089112693539048E-02 
   -1.0634450100676021E-02 
   -1.0634371008207544E-02 
   -1.0089037656953454E-02 
   -1.0088959619101711E-02 
   -1.0634288752248273E-02 
   -1.0634203332822679E-02 
   -1.0088878580007050E-02 
   -1.0088794539693538E-02 
   -1.0634114749956167E-02 
   -1.0634023003675113E-02 
   -1.0088707498186229E-02 
   -1.0088617455511158E-02 
   -1.0633928094006984E-02 
   -1.0633830020979911E-02 
   -1.0088524411695029E-02 
   -1.1180782140297094E-02 
   -1.1726161728982096E-02 
   -1.1726158240708599E-02 
   -1.1180778814262157E-02 
   -1.1180772162192152E-02 
   -1.1726151264161690E-02 
   -1.1726140799343431E-02 
   -1.1180762184089059E-02 
   -1.1180748879955847E-02 
   -1.1726126846256946E-02 
   -1.1726109404906386E-02 
   -1.1180732249796470E-02 
   -1.1180712293615875E-02 
   -1.1726088475296935E-02 
   -1.1726064057434822E-02 
   -1.1180689011420004E-02 
   -1.1180662403215781E-02 
   -1.1726036151327309E-02 
   -1.1726004756982699E-02 
   -1.1180632469011119E-02 
   -1.1180599208814921E-02 
   -1.1725969874410330E-02 
   -1.1725931503620579E-02 
   -1.1180562622637084E-02 
   -1.1180522710488496E-02 
   -1.1725889644624857E-02 
   -1.1725844297435622E-02 
   -1.1180479472381023E-02 
   -1.1180432908327530E-02 
   -1.1725795462066363E-02 
   -1.1725743138531603E-02 
   -1.1180383018341872E-02 
   -1.1180329802438887E-02 
   -1.1725687326846913E-02 
   -1.1725628027028893E-02 
   -1.1180273260634400E-02 
   -1.1180213392945240E-02 
   -1.1725565239095181E-02 
   -1.1725498963064459E-02 
   -1.1180150199389212E-02 
   -1.1180083679985112E-02 
   -1.1725429198956442E-02 
   -1.1725355946791877E-02 
   -1.1180013834752736E-02 
   -1.1179940663712858E-02 
   -1.1725279206592564E-02 
   -1.1725198978381325E-02 
   -1.1179864166887245E-02 
   -1.1179784344298647E-02 
   -1.1725115262182029E-02 
   -1.1725028058019579E-02 
   -1.1179701195970816E-02 
   -1.1179614721928485E-02 
   -1.1724937365919919E-02 
   -1.1724843185910024E-02 
   -1.1179524922197388E-02 
   -1.1179431796804220E-02 
   -1.1724745518017913E-02 
   -1.1724644362272633E-02 
   -1.1179335345776689E-02 
   -1.1179235569143530E-02 
   -1.1724539718704269E-02 
   -1.1724431587343882E-02 
   -1.1179132466934250E-02 
   -1.2271537829392654E-02 
   -1.2816910279291393E-02 
   -1.2816906466543933E-02 
   -1.2271534178881632E-02 
   -1.2271526877859887E-02 
   -1.2816898841049524E-02 
   -1.2816887402810428E-02 