# vtk DataFile Version 2.0
Pressure Field Data 
ASCII 
DATASET UNSTRUCTURED_GRID 

POINTS 8217 float 

    0.0000000000000000E+00     0.0000000000000000E+00     0.0000000000000000E+00 
    5.0000000000000000E-01     0.0000000000000000E+00     0.0000000000000000E+00 
    1.0000000000000000E+00     0.0000000000000000E+00     0.0000000000000000E+00 
    1.0000000000000000E+00     1.0000000000000000E+00     0.0000000000000000E+00 
    5.0000000000000000E-01     1.0000000000000000E+00     0.0000000000000000E+00 
    0.0000000000000000E+00     1.0000000000000000E+00     0.0000000000000000E+00 
    1.5624999999970940E-02     0.0000000000000000E+00     0.0000000000000000E+00 
    3.1249999999936530E-02     0.0000000000000000E+00     0.0000000000000000E+00 
    4.6874999999911612E-02     0.0000000000000000E+00     0.0000000000000000E+00 
    6.2499999999886688E-02     0.0000000000000000E+00     0.0000000000000000E+00 
    7.8124999999841765E-02     0.0000000000000000E+00     0.0000000000000000E+00 
    9.3749999999796829E-02     0.0000000000000000E+00     0.0000000000000000E+00 
    1.0937499999975120E-01     0.0000000000000000E+00     0.0000000000000000E+00 
    1.2499999999970560E-01     0.0000000000000000E+00     0.0000000000000000E+00 
    1.4062499999966011E-01     0.0000000000000000E+00     0.0000000000000000E+00 
    1.5624999999961450E-01     0.0000000000000000E+00     0.0000000000000000E+00 
    1.7187499999956890E-01     0.0000000000000000E+00     0.0000000000000000E+00 
    1.8749999999952341E-01     0.0000000000000000E+00     0.0000000000000000E+00 
    2.0312499999947781E-01     0.0000000000000000E+00     0.0000000000000000E+00 
    2.1874999999943229E-01     0.0000000000000000E+00     0.0000000000000000E+00 
    2.3437499999938941E-01     0.0000000000000000E+00     0.0000000000000000E+00 
    2.4999999999934661E-01     0.0000000000000000E+00     0.0000000000000000E+00 
    2.6562499999938499E-01     0.0000000000000000E+00     0.0000000000000000E+00 
    2.8124999999942352E-01     0.0000000000000000E+00     0.0000000000000000E+00 
    2.9687499999946471E-01     0.0000000000000000E+00     0.0000000000000000E+00 
    3.1249999999950578E-01     0.0000000000000000E+00     0.0000000000000000E+00 
    3.2812499999954697E-01     0.0000000000000000E+00     0.0000000000000000E+00 
    3.4374999999958822E-01     0.0000000000000000E+00     0.0000000000000000E+00 
    3.5937499999962941E-01     0.0000000000000000E+00     0.0000000000000000E+00 
    3.7499999999967060E-01     0.0000000000000000E+00     0.0000000000000000E+00 
    3.9062499999971179E-01     0.0000000000000000E+00     0.0000000000000000E+00 
    4.0624999999975292E-01     0.0000000000000000E+00     0.0000000000000000E+00 
    4.2187499999979411E-01     0.0000000000000000E+00     0.0000000000000000E+00 
    4.3749999999983530E-01     0.0000000000000000E+00     0.0000000000000000E+00 
    4.5312499999987649E-01     0.0000000000000000E+00     0.0000000000000000E+00 
    4.6874999999991768E-01     0.0000000000000000E+00     0.0000000000000000E+00 
    4.8437499999995881E-01     0.0000000000000000E+00     0.0000000000000000E+00 
    5.1562500000000289E-01     0.0000000000000000E+00     0.0000000000000000E+00 
    5.3125000000000000E-01     0.0000000000000000E+00     0.0000000000000000E+00 
    5.4687500000001565E-01     0.0000000000000000E+00     0.0000000000000000E+00 
    5.6249999999999989E-01     0.0000000000000000E+00     0.0000000000000000E+00 
    5.7812499999996880E-01     0.0000000000000000E+00     0.0000000000000000E+00 
    5.9374999999999978E-01     0.0000000000000000E+00     0.0000000000000000E+00 
    6.0937500000000666E-01     0.0000000000000000E+00     0.0000000000000000E+00 
    6.2499999999999978E-01     0.0000000000000000E+00     0.0000000000000000E+00 
    6.4062499999998734E-01     0.0000000000000000E+00     0.0000000000000000E+00 
    6.5624999999999978E-01     0.0000000000000000E+00     0.0000000000000000E+00 
    6.7187499999999822E-01     0.0000000000000000E+00     0.0000000000000000E+00 
    6.8749999999999978E-01     0.0000000000000000E+00     0.0000000000000000E+00 
    7.0312499999999978E-01     0.0000000000000000E+00     0.0000000000000000E+00 
    7.1874999999999978E-01     0.0000000000000000E+00     0.0000000000000000E+00 
    7.3437499999999645E-01     0.0000000000000000E+00     0.0000000000000000E+00 
    7.4999999999999978E-01     0.0000000000000000E+00     0.0000000000000000E+00 
    7.6562499999996581E-01     0.0000000000000000E+00     0.0000000000000000E+00 
    7.8124999999999978E-01     0.0000000000000000E+00     0.0000000000000000E+00 
    7.9687500000006262E-01     0.0000000000000000E+00     0.0000000000000000E+00 
    8.1249999999999989E-01     0.0000000000000000E+00     0.0000000000000000E+00 
    8.2812499999998379E-01     0.0000000000000000E+00     0.0000000000000000E+00 
    8.4374999999999989E-01     0.0000000000000000E+00     0.0000000000000000E+00 
    8.5937500000000644E-01     0.0000000000000000E+00     0.0000000000000000E+00 
    8.7499999999999989E-01     0.0000000000000000E+00     0.0000000000000000E+00 
    8.9062499999999778E-01     0.0000000000000000E+00     0.0000000000000000E+00 
    9.0625000000000000E-01     0.0000000000000000E+00     0.0000000000000000E+00 
    9.2187500000000644E-01     0.0000000000000000E+00     0.0000000000000000E+00 
    9.3750000000000000E-01     0.0000000000000000E+00     0.0000000000000000E+00 
    9.5312499999997879E-01     0.0000000000000000E+00     0.0000000000000000E+00 
    9.6875000000000000E-01     0.0000000000000000E+00     0.0000000000000000E+00 
    9.8437499999997480E-01     0.0000000000000000E+00     0.0000000000000000E+00 
    1.0000000000000000E+00     1.5624999999970180E-02     0.0000000000000000E+00 
    1.0000000000000000E+00     3.1249999999940509E-02     0.0000000000000000E+00 
    1.0000000000000000E+00     4.6874999999906783E-02     0.0000000000000000E+00 
    1.0000000000000000E+00     6.2499999999873053E-02     0.0000000000000000E+00 
    1.0000000000000000E+00     7.8124999999848468E-02     0.0000000000000000E+00 
    1.0000000000000000E+00     9.3749999999823891E-02     0.0000000000000000E+00 
    1.0000000000000000E+00     1.0937499999979861E-01     0.0000000000000000E+00 
    1.0000000000000000E+00     1.2499999999977340E-01     0.0000000000000000E+00 
    1.0000000000000000E+00     1.4062499999972911E-01     0.0000000000000000E+00 
    1.0000000000000000E+00     1.5624999999968489E-01     0.0000000000000000E+00 
    1.0000000000000000E+00     1.7187499999963929E-01     0.0000000000000000E+00 
    1.0000000000000000E+00     1.8749999999959369E-01     0.0000000000000000E+00 
    1.0000000000000000E+00     2.0312499999954800E-01     0.0000000000000000E+00 
    1.0000000000000000E+00     2.1874999999950240E-01     0.0000000000000000E+00 
    1.0000000000000000E+00     2.3437499999945680E-01     0.0000000000000000E+00 
    1.0000000000000000E+00     2.4999999999941119E-01     0.0000000000000000E+00 
    1.0000000000000000E+00     2.6562499999936562E-01     0.0000000000000000E+00 
    1.0000000000000000E+00     2.8124999999931999E-01     0.0000000000000000E+00 
    1.0000000000000000E+00     2.9687499999927452E-01     0.0000000000000000E+00 
    1.0000000000000000E+00     3.1249999999922901E-01     0.0000000000000000E+00 
    1.0000000000000000E+00     3.2812499999918338E-01     0.0000000000000000E+00 
    1.0000000000000000E+00     3.4374999999913791E-01     0.0000000000000000E+00 
    1.0000000000000000E+00     3.5937499999909228E-01     0.0000000000000000E+00 
    1.0000000000000000E+00     3.7499999999904682E-01     0.0000000000000000E+00 
    1.0000000000000000E+00     3.9062499999900119E-01     0.0000000000000000E+00 
    1.0000000000000000E+00     4.0624999999895561E-01     0.0000000000000000E+00 
    1.0000000000000000E+00     4.2187499999891009E-01     0.0000000000000000E+00 
    1.0000000000000000E+00     4.3749999999886452E-01     0.0000000000000000E+00 
    1.0000000000000000E+00     4.5312499999881900E-01     0.0000000000000000E+00 
    1.0000000000000000E+00     4.6874999999877343E-01     0.0000000000000000E+00 
    1.0000000000000000E+00     4.8437499999873318E-01     0.0000000000000000E+00 
    1.0000000000000000E+00     4.9999999999869310E-01     0.0000000000000000E+00 
    1.0000000000000000E+00     5.1562499999872891E-01     0.0000000000000000E+00 
    1.0000000000000000E+00     5.3124999999876465E-01     0.0000000000000000E+00 
    1.0000000000000000E+00     5.4687499999880584E-01     0.0000000000000000E+00 
    1.0000000000000000E+00     5.6249999999884692E-01     0.0000000000000000E+00 
    1.0000000000000000E+00     5.7812499999888822E-01     0.0000000000000000E+00 
    1.0000000000000000E+00     5.9374999999892941E-01     0.0000000000000000E+00 
    1.0000000000000000E+00     6.0937499999897060E-01     0.0000000000000000E+00 
    1.0000000000000000E+00     6.2499999999901168E-01     0.0000000000000000E+00 
    1.0000000000000000E+00     6.4062499999905287E-01     0.0000000000000000E+00 
    1.0000000000000000E+00     6.5624999999909406E-01     0.0000000000000000E+00 
    1.0000000000000000E+00     6.7187499999913525E-01     0.0000000000000000E+00 
    1.0000000000000000E+00     6.8749999999917644E-01     0.0000000000000000E+00 
    1.0000000000000000E+00     7.0312499999921751E-01     0.0000000000000000E+00 
    1.0000000000000000E+00     7.1874999999925870E-01     0.0000000000000000E+00 
    1.0000000000000000E+00     7.3437499999930000E-01     0.0000000000000000E+00 
    1.0000000000000000E+00     7.4999999999934119E-01     0.0000000000000000E+00 
    1.0000000000000000E+00     7.6562499999938238E-01     0.0000000000000000E+00 
    1.0000000000000000E+00     7.8124999999942357E-01     0.0000000000000000E+00 
    1.0000000000000000E+00     7.9687499999946465E-01     0.0000000000000000E+00 
    1.0000000000000000E+00     8.1249999999950584E-01     0.0000000000000000E+00 
[...]
CELL_DATA 8088 
SCALARS Pressure float 1 
LOOKUP_TABLE default 

    4.4869780753136865E+00 
    4.3805932128871188E+00 
    4.3087035946959595E+00 
    4.0335265528668831E+00 
    4.1508758185891432E+00 
    4.2224031318784156E+00 
    3.8521206759614821E+00 
    3.6762162992097775E+00 
    3.7256857423685625E+00 
    3.3680006948776575E+00 
    3.5566939529339017E+00 
    3.5069650640494414E+00 
    2.4482076764004890E+00 
    2.5525726027050211E+00 
    2.6027514994419270E+00 
    2.8751696243273868E+00 
    2.7577963334882556E+00 
    2.7055540063786863E+00 
    4.7231799024747216E+00 
    4.7109833052967716E+00 
    4.8530793900846723E+00 
    4.1247297588769021E+00 
    4.2750672730091006E+00 
    4.1425827422842341E+00 
    5.0947688502049431E+00 
    5.1030743941427534E+00 
    4.9462501001842805E+00 
    5.6638441631762726E+00 
    5.4984037744227994E+00 
    5.5584811632739957E+00 
    2.3358468471391340E+00 
    2.4999078365736338E+00 
    2.4388099546385207E+00 
    4.5178548400601803E+00 
    4.6811605289157630E+00 
    4.6089728852584226E+00 
    3.4830762806291626E+00 
    3.3198160639858725E+00 
    3.3947502360494441E+00 
    4.5844343876548015E+00 
    4.4747590323773814E+00 
    4.5791271661660140E+00 
    3.9868728776227398E+00 
    4.0092491728681363E+00 
    3.8964617160784654E+00 
    4.3343179709930002E+00 
    4.3898083842204016E+00 
    4.4603664820699223E+00 
    4.8066605007531793E+00 
    4.9835196028395874E+00 
    4.8359153199706846E+00 
    4.6766933934959400E+00 
    4.5850613112844663E+00 
    4.5159224241409257E+00 
    5.0660319212302296E+00 
    4.8941001247269016E+00 
    4.9665520972351898E+00 
    4.6247135005846545E+00 
    4.8073220686206790E+00 
    4.7361460545335561E+00 
    6.1660335535154918E+00 
    6.1743842024685591E+00 
    6.3328595903596820E+00 
    6.7999778354843547E+00 
    6.9700412936517155E+00 
    6.8343097072620225E+00 
    2.8823584123099235E+00 
    2.9598101258822904E+00 
    2.8206295618153017E+00 
    7.7515542720828234E+00 
    7.6119559149112375E+00 
    7.6180424820370076E+00 
    6.9401014378181074E+00 
    6.8200983333979339E+00 
    6.7890717337978161E+00 
    2.9988054003291014E+00 
    3.1388263777339929E+00 
    3.0749378507486163E+00 
    5.3839293355689910E-01 
    7.3315419096625223E-01 
    6.5814184914571494E-01 
    6.7294849954883560E+00 
    6.6894890141127181E+00 
    6.5599731537415638E+00 
    6.4495039828938765E+00 
    6.4550110621099295E+00 
    6.5924774822492429E+00 
    3.7253933771645937E+00 
    3.7655669562617611E+00 
    3.8910831820177698E+00 
    6.4538964621765089E+00 
    6.3229782031626129E+00 
    6.2926450940844374E+00 
    6.0065728564265131E+00 
    6.1308848011795769E+00 
    6.1673146427195329E+00 
    3.4360614693544256E+00 
    3.5812673579454688E+00 
    3.4332198964656953E+00 
    2.8460811600173339E+00 
    2.8123394347203474E+00 
    2.9777927581586421E+00 
    3.4172751640057664E+00 
    3.5423411899068262E+00 
    3.5867502936288291E+00 
    3.8401172778378934E+00 
    3.7380133584119251E+00 
    3.6891754391849823E+00 
    4.5270607050102845E+00 
    4.6660631941350434E+00 
    4.5300201682242909E+00 
    5.7428125120391620E+00 
    5.6456104120719983E+00 
    5.5750821084383109E+00 
    6.1801842536841054E+00 
    6.3293324520637562E+00 
    6.3183229789283706E+00 
    8.4927812533971203E-01 
    1.0678374024710695E+00 
    9.7904298298979442E-01 
    6.2316053170031829E+00 
    6.0868129745225206E+00 
    6.0667140308202132E+00 
    6.6328366233862370E+00 
    6.4812232398457885E+00 
    6.4480637924549393E+00 
    1.4378145763423413E+00 
    1.3395641866761692E+00 
    1.2656827443171226E+00 
    9.0256224681655328E-01 
    7.2662772612666038E-01 
    7.9322553140288810E-01 
    6.4643190678569553E+00 
    6.5734539792495310E+00 
    6.6436860997709344E+00 
    3.4786263458988831E+00 
    3.4961998253534805E+00 
    3.6387311172352996E+00 
    6.0959202696947887E+00 
    6.2306906687175285E+00 
    6.0893294019934237E+00 
    6.0902222505115349E+00 
    6.2426316520531664E+00 
    6.2471346673577033E+00 
    1.5647010496251337E+00 
    1.6161189025120284E+00 
    1.4697189759484564E+00 
    3.0801709721611501E+00 
    3.2482846433385855E+00 
    3.0936427400314748E+00 
    3.3178044422799053E+00 
    3.1796093629116853E+00 
    3.3313254572044673E+00 
    6.0207023185697714E+00 
    6.1820403613490313E+00 
    6.0555252941199047E+00 
    3.4270171026306988E+00 
    3.3702552270212922E+00 
    3.5427353877031096E+00 
    3.3845783821032884E+00 
    3.3748589012116352E+00 
    3.2429968281513006E+00 
    3.5136730740653972E+00 
    3.6124896406301321E+00 
    3.5130629771379986E+00 
    6.2419443916992030E+00 
    6.3967369617411487E+00 
    6.3652366013963428E+00 
    6.8464605444722899E+00 
    6.9609079525632342E+00 
    7.0137671734060909E+00 
    5.3458359388097794E+00 
    5.2324190518875282E+00 
    5.4014941400889960E+00 
    2.6510283737676352E+00 
    2.7623558359125169E+00 
    2.5938564091343332E+00 
    4.6058990786752947E+00 
    4.4492067870893930E+00 
    4.5996528182939231E+00 
    4.4102625032360443E+00 
    4.5314493615914060E+00 
    4.3776301281230987E+00 
    6.7034584489247093E+00 
    6.5344363295284138E+00 
    6.6169880986359839E+00 
    6.6013624714405967E+00 
    6.5163160923618504E+00 
    6.4498693625439483E+00 
    9.8401698556936812E-01 
    1.1064857470702918E+00 
    1.1816017347203831E+00 
    4.2909976684626894E-01 
    6.2583058392638435E-01 
    5.6476670629928893E-01 
    1.6282999396692466E+00 
    1.5078910184852674E+00 
    1.7099452775294930E+00 
    9.2479986331732422E-01 
    1.0264070520057209E+00 
    8.2724987014134532E-01 
    3.0038190911047074E+00 
    3.0750664860104080E+00 
    2.8887464675828944E+00 
    2.8936195812540015E+00 
    2.8487765394306557E+00 
    3.0343313294634013E+00 
    2.1134463632995404E+00 
    2.2635920003818870E+00 
    2.0968012728519692E+00 
    2.2913583346975583E+00 
    2.1594343554731119E+00 
    2.3298520346105156E+00 
    3.7938411126232054E+00 
    3.9127022868203181E+00 
    3.9131667792481934E+00 
    6.2965409242493822E+00 
    6.1675428024533421E+00 
    6.2978418792042596E+00 
    4.9710444890609660E+00 
    5.1163522594851925E+00 
    5.1133569742086129E+00 
    5.4392935627015593E+00 
    5.2795459595151168E+00 
    5.2817433481666543E+00 
    9.8223654785428738E-01 
    1.1863064302109154E+00 
    1.1154712348824507E+00 
    4.0877539058848972E-01 
    5.2385750039905099E-01 
    6.1211727317323150E-01 
    5.3682178317492983E+00 
    5.4426214253325762E+00 
    5.5146066602380381E+00 
    1.0376619782751046E+00 
    9.2772352863733287E-01 
    1.0969416393325429E+00 
    2.4158078354748747E+00 
    2.5708270319477315E+00 
    2.4637008540462797E+00 
    1.6907667312792423E+00 
    1.7116267349337115E+00 
    1.8358947453930743E+00 
    5.9818151665839228E+00 
    5.8085374443059381E+00 
    5.9865407691035806E+00 
    5.7424681338195720E+00 
    5.8987394181157571E+00 
    5.7273061715266431E+00 
    7.3651529533647597E+00 
    7.4814425304342880E+00 
    7.4697086952320335E+00 
    6.5632614619289740E+00 
    6.6499532866756459E+00 
    6.6867330609721938E+00 
    9.3508586829676832E-01 
    9.1845178898262714E-01 
    1.1072857286320135E+00 
    2.7186204901740518E-01 
    2.6519459554012587E-01 
    4.4554718056040976E-01 
    3.8903704301490776E+00 
    3.7356118037977515E+00 
    3.7286785110624545E+00 
    7.2854619961844183E+00 
    7.1718953754678161E+00 
    7.1280364547676625E+00 
    2.2791254626260780E+00 
    2.3249495063634793E+00 
    2.1783890124477825E+00 
    1.5497551629750466E+00 
    1.4317042219356577E+00 
    1.5686376371052189E+00 
    6.2322119636221212E+00 
    6.3191631051861297E+00 
    6.3814371229337690E+00 
    5.4093294080262055E-01 
    6.7120060868377629E-01 
    7.3935581323881627E-01 
    3.7230619604780499E+00 
    3.7145738344443355E+00 
    3.8440539257790962E+00 
    6.7580979046487952E+00 
    6.7475751248602256E+00 
    6.8860289531685108E+00 
    1.2419510452634968E+00 
    1.2530927584588483E+00 
    1.1137589980423797E+00 
    5.7871078816717922E+00 
    5.9351527571319167E+00 
    5.8060425844684014E+00 
    2.2131588597852367E+00 
    2.0644046997552441E+00 
    2.1950393820369669E+00 
    3.9645084746655161E+00 
    3.8139404495415059E+00 
    3.9720522128298419E+00 
    4.8234796641660402E+00 
    4.9578036372227476E+00 
    4.9198875859265039E+00 
    6.1807095456549970E+00 
    5.9868936648842279E+00 
    6.1137397003716440E+00 
    6.9398961086503901E+00 
    6.7955037627784280E+00 
    6.8411755004632040E+00 
    6.9949264786472645E+00 
    7.0483915631410152E+00 
    7.1460071460005841E+00 
    4.9918425354738174E+00 
    4.9115239781453193E+00 
    5.0660522577525997E+00 
    3.7208199389971095E+00 
    3.5320920287949562E+00 
    3.6846426562431480E+00 
    3.0656180773907877E+00 
    3.0581072645769813E+00 
    2.8884816197072691E+00 
    3.5735239536081786E-01 
    5.2635189678776118E-01 
    4.9735514031937161E-01 
    9.8745279072232883E-01 
    1.1203607064701093E+00 
    1.1708460365317386E+00 
    2.5750278628409160E+00 
    2.6151647976882502E+00 
    2.4621882914310995E+00 
    3.2782845942620407E+00 
    3.2651482207454223E+00 
    3.3806651402285226E+00 
    1.7658647052433714E+00 
    1.6570846720595622E+00 
    1.7848329105216982E+00 
    6.1475124058132655E+00 
    6.3060675754931861E+00 
    6.2572470850315547E+00 
    6.5515839789749615E+00 
    6.4001579069256653E+00 
    6.4529306535623645E+00 
    5.7361966153914823E+00 
    5.6592806084773777E+00 
    5.5826433845697832E+00 
    5.3565780713489115E+00 
    5.4485184341099808E+00 
    5.5191510423501029E+00 
    4.0215901121564093E+00 
    4.2095064886288638E+00 
    4.1135137059665583E+00 
    3.3319067450384368E+00 
    3.4013189936389514E+00 
    3.5214644638748429E+00 
    6.1665209706425435E+00 
    6.0945338176371022E+00 
    5.9896663441901810E+00 
    6.4616395987683530E+00 
    6.6371660035888862E+00 
    6.5616005739205701E+00 
    6.9340278931948989E+00 
    6.9504846401638174E+00 
    6.8121161063780482E+00 
    1.7360234847503789E-01 
    3.3017333291502415E-01 
    3.1079106227348147E-01 
    6.8367424315787213E+00 
    6.7166333488408174E+00 
    6.6792231557221342E+00 
    8.9406487059176781E-02 
    2.2860416824869847E-01 
    9.5642726586158230E-02 
    7.9123385038686163E+00 
    7.7724852048765047E+00 
    7.9045555324911136E+00 
    7.8281298421644161E+00 
    7.6698605821010455E+00 
    7.6900419139640563E+00 
    1.0648770231171369E+00 
    1.0487111253380825E+00 
    1.1855889460677305E+00 
    1.1620572102930056E+00 
    1.2806106114168592E+00 
    1.3195136709714697E+00 
    4.5798336426389312E+00 
    4.5195504892917553E+00 
    4.4224697102698869E+00 
    1.6716415137087655E+00 
    1.5238979309572513E+00 
    1.5603405218994753E+00 
    1.2467116552561148E+00 
    1.4105295544224292E+00 
    1.3774422632695198E+00 
    3.6539686241771228E+00 
    3.5127520695826124E+00 
    3.4691023394009481E+00 
    3.1860928677095610E+00 
    3.3000610655685803E+00 
    3.3533063530331582E+00 
    2.9781907416096089E+00 
    2.8009116147742104E+00 
    2.8232272166853258E+00 
    2.4995626479003512E+00 
    2.6586883042382770E+00 
    2.6259770711670947E+00 
    1.9405418674575181E+00 
    1.7731486595430819E+00 
    1.8439771675622612E+00 
    1.5048405005789369E+00 
    1.6873970422867273E+00 
    1.6185897296794340E+00 
    3.0201670485241041E+00 
    3.1348517396016087E+00 
    3.1556044374530279E+00 
    6.1318497884640779E+00 
    6.1049251706584400E+00 
    6.2238419897347024E+00 
    6.6931482521894994E+00 
    6.4972174474491347E+00 
    6.6364243155613414E+00 
    5.0611683754518140E+00 
    5.1515994791791897E+00 
    5.0052163810335548E+00 
    4.4114606638071292E+00 
    4.3422113529108932E+00 
    4.2270739154858870E+00 
    4.7133544149685758E+00 
    4.8038987654819065E+00 
    4.6497800942919945E+00 
    3.5849826567857557E+00 
    3.7259332630588582E+00 
    3.7274454681004379E+00 
    3.0678865485800579E+00 
    3.0231405618333653E+00 
    3.1791291887225182E+00 
    6.3095768048003249E+00 
    6.2859643875894102E+00 
    6.1656762956737374E+00 
    6.5653700309312732E+00 
    6.7053398291884143E+00 
    6.6586370509084833E+00 
    1.7830651926981202E+00 
    1.9418687175573486E+00 
    1.9626195982431878E+00 
    7.0250534043662494E-01 
    8.6218612429356889E-01 
    8.4896190204184008E-01 
    6.0030897523480844E+00 
    5.8672503372766869E+00 
    5.9746203976022025E+00 
    7.2806841144728720E+00 
    7.0911547777772235E+00 
    7.1137341949788748E+00 
    5.4480539734275020E+00 
    5.4426762093832544E+00 
    5.2944395671483919E+00 
    3.9193012980222885E+00 
    3.8883500930261521E+00 
    4.0607380736590830E+00 
    6.8671502072733359E+00 
    6.8037215123424604E+00 
    6.9301268325780061E+00 
    1.1483695374473368E+00 
    1.1927931248642165E+00 
    1.3247623622679496E+00 
    4.6108030516769851E+00 
    4.6518435697486815E+00 
    4.5075879105466452E+00 
    3.9603849572847794E+00 
    3.8395651924917202E+00 
    3.9792728491811622E+00 
    1.3800478045205076E+00 
    1.3565358254920332E+00 
    1.5090869912512939E+00 
    1.6056497501074223E+00 
    1.5860049144748143E+00 
    1.4367658366901916E+00 
    5.1803077341070702E+00 
    5.3202899598913280E+00 
    5.2585016040264421E+00 
    4.5504991359418527E+00 
    4.6116369013793346E+00 
    4.4816013636043976E+00 
    4.7328318919502772E+00 
    4.7496585867845349E+00 
    4.8932782139836393E+00 
    5.0226591299403074E+00 
    5.1691476550036031E+00 
    5.1066046372292568E+00 
    4.3111031590599707E+00 
    4.4162999328014250E+00 
    4.2867462834300802E+00 
    5.8179527703379481E+00 
    5.9840552604561319E+00 
    5.8529840920268317E+00 
    3.4311656138599065E+00 
    3.4342676027241850E+00 
    3.3261033383496499E+00 
    1.6749690993120885E+00 
    1.5603913433645664E+00 
    1.5244456547664169E+00 
    1.7789260969162086E+00 
    1.8643791705156176E+00 
    1.9319919757685924E+00 
    2.1653337996291948E+00 
    2.0653232844207183E+00 
    2.0043670662092623E+00 
    1.4572750339810212E+00 
    1.3072857830657254E+00 
    1.3400355451277381E+00 
    1.0587025286777918E+00 
    1.2025205560063212E+00 
    1.1629034016397597E+00 
    7.3294760096096097E+00 
    7.3434655049650495E+00 
    7.1827926975520260E+00 
    4.8134385403555484E+00 
    4.9312864618543397E+00 
    4.9350686628970708E+00 
    4.1822179955092675E+00 
    4.3032242119454622E+00 
    4.3330244219036587E+00 
    2.4486406934127922E+00 
    2.3942933513142788E+00 
    2.5793892738290887E+00 
    4.9538473544823916E+00 
    4.9628945349516718E+00 
    4.8293517313847669E+00 
    1.1931825026976863E+00 
    1.3733615781383897E+00 
    1.3233074561870604E+00 
    2.2218046065273094E+00 
    2.3382359057272017E+00 
    2.3723255116774551E+00 
    2.5156765670036183E+00 
    2.5984506826117504E+00 
    2.4215105991395105E+00 
    2.7096815618474683E+00 
    2.7236017869264257E+00 
    2.8568926653716820E+00 
    2.9092951189398275E+00 
    2.9301388437396994E+00 
    2.7896584566115390E+00 
    3.3302707096941297E+00 
    3.4425992759524688E+00 
    3.5125758057905614E+00 
    5.3122022178104435E+00 
    5.1502735827069142E+00 
    5.2125416202980706E+00 
    6.8046347200132651E-01 
    8.3152836400718078E-01 
    8.5190957998445371E-01 
    1.7911673916534561E+00 
    1.8438405261866917E+00 
    1.6760296029629294E+00 
    3.7367560413939085E+00 
    3.6632754121452575E+00 
    3.5846164216507850E+00 
    4.3570035804506677E+00 
    4.2988217873458829E+00 
    4.2340672003005437E+00 
    2.5139664384007943E+00 
    2.5817291950407184E+00 
    2.4402136641712868E+00 
    2.3972250466398024E+00 
    2.5187949399341618E+00 
    2.3713816387510187E+00 
    5.0845498350817051E+00 
    5.0263457259022459E+00 
    4.9156784477497544E+00 
    4.7098991525613432E+00 
    4.7806043756295962E+00 
    4.8906272379582409E+00 
    4.7756808324835278E+00 
    4.9389097810490474E+00 
    4.8750798262013024E+00 
    7.3870238095594694E+00 
    7.3930797518715208E+00 
    7.2164030797386873E+00 
    6.0247375592736707E-01 
    7.7644004753115248E-01 
    6.1495396228997212E-01 
    4.0583216782958615E+00 
    4.1508041577443677E+00 
    4.2229883648067021E+00 
    4.4077879114753040E+00 
    4.3524767416236436E+00 
    4.2773954240962908E+00 
    6.3573823137266539E+00 
    6.2964922757971751E+00 
    6.4904146601599733E+00 
    6.4360636932580277E+00 
    6.5170946579445390E+00 
    6.3285888812415259E+00 
    5.7927788872131485E+00 
    5.6899442647455780E+00 
    5.8622620613322676E+00 
    2.2060564658211472E+00 
    2.3052265337757354E+00 
    2.1332791467338410E+00 
    4.8217212282903077E+00 
    4.9096197078807915E+00 
    4.7486453273916656E+00 
    3.1788103123956186E+00 
    3.0914168135614650E+00 
    3.2560317685334490E+00 
    4.5448812213965661E+00 
    4.4111749828467799E+00 
    4.4739597060285536E+00 
    6.7846898369316815E+00 
    6.8678381230236081E+00 
    6.6984464300237283E+00 
    6.6849007241256144E+00 
    6.6651185381842728E+00 
    6.8282072822579440E+00 
    3.5603495601161441E+00 
    3.3823749102945495E+00 
    3.4614912325035867E+00 
    2.7989414813343836E+00 
    2.7329260623679024E+00 
    2.6234095760997516E+00 
    3.7696011218885541E+00 
    3.6343901890689874E+00 
    3.7409720770788017E+00 
    2.6995370091870887E+00 
    2.5582094246155198E+00 
    2.6586823708276257E+00 
    1.9039557064921098E+00 
    1.9110842084341795E+00 
    2.0313399777085266E+00 
    2.1704472015909153E+00 
    2.3201038444643314E+00 
    2.1869836614255762E+00 
    3.2891514296166457E+00 
    3.2810196559167495E+00 
    3.1660988785459980E+00 
    5.3961917938749675E+00 
    5.2431855323583934E+00 
    5.2959499189769650E+00 
    5.8974557164655188E+00 
    5.8652297448077784E+00 
    6.0170563987220840E+00 
    7.3801833800757555E-01 
    8.6778363227986755E-01 
    7.4973709741785100E-01 
    6.3344398781980447E+00 
    6.4447621414911547E+00 
    6.2928589066272096E+00 
    2.1559293250899487E+00 
    2.2946205352705005E+00 
    2.1977433234065598E+00 
    2.3904807139262618E+00 
    2.3113584781404906E+00 
    2.2233589200368393E+00 
    6.9470789533771988E+00 
    6.7993085042774997E+00 
    6.8358824991166456E+00 
    6.3372573130931942E+00 
    6.4973631114994328E+00 
    6.3871300568199363E+00 
    1.6604480425390540E+00 
    1.5022951007204444E+00 
    1.6075351430999327E+00 
    5.4215914593112844E+00 
    5.4517664117945435E+00 
    5.5723592438756215E+00 
    2.5816650543324533E+00 
    2.5500954433421827E+00 
    2.4300717385033108E+00 
    3.4164886967368253E+00 
    3.5361429876435100E+00 
    3.3657443801932594E+00 
    2.5883244571241248E+00 
    2.5640802977917088E+00 
    2.7045825057842729E+00 
    1.6219250176806390E+00 
    1.4983945205950424E+00 
    1.4609054847821068E+00 
    2.5205257292112511E+00 
    2.3677202419436436E+00 
    2.3844897268031686E+00 
    6.1827150602879213E+00 
    6.1443189458679379E+00 
    6.0380589563931357E+00 
    6.5189536132248529E+00 
    6.3620060436596599E+00 
    6.5073980974925307E+00 
    6.3855996377014419E+00 
    6.5115548452784271E+00 
    6.5439641143462595E+00 
    5.4806891398580637E+00 
    5.6376785874199173E+00 
    5.6198968227207722E+00 
    1.0831109187370314E+00 
    1.0026751589534715E+00 
    1.1360130821652854E+00 
    2.4629600920527763E+00 
    2.3626623223271901E+00 
    2.3258156929149001E+00 
    2.6799648423189599E+00 
    2.7971682388234496E+00 
    2.6694781503070795E+00 
    1.2389287108447975E+00 
    1.1156245347201839E+00 
    1.2146626285704114E+00 
    6.9065965150753250E+00 
    6.9874014383827090E+00 
    7.0448171122614403E+00 
    6.6166507864138850E+00 
    6.4888965887371945E+00 
    6.5971493426914289E+00 
    1.3834886312673902E+00 
    1.5102891293440548E+00 
    1.4032647421287157E+00 