# vtk DataFile Version 2.0
Pressure Field Data 
ASCII 
DATASET UNSTRUCTURED_GRID 

POINTS 8259 float 

    0.0000000000000000E+00     0.0000000000000000E+00     0.0000000000000000E+00 
    5.0000000000000000E-01     0.0000000000000000E+00     0.0000000000000000E+00 
    1.0000000000000000E+00     0.0000000000000000E+00     0.0000000000000000E+00 
    1.0000000000000000E+00     1.0000000000000000E+00     0.0000000000000000E+00 
    5.0000000000000000E-01     1.0000000000000000E+00     0.0000000000000000E+00 
    0.0000000000000000E+00     1.0000000000000000E+00     0.0000000000000000E+00 
    1.5624999999970940E-02     0.0000000000000000E+00     0.0000000000000000E+00 
    3.1249999999936530E-02     0.0000000000000000E+00     0.0000000000000000E+00 
    4.6874999999911612E-02     0.0000000000000000E+00     0.0000000000000000E+00 
    6.2499999999886688E-02     0.0000000000000000E+00     0.0000000000000000E+00 
    7.8124999999841765E-02     0.0000000000000000E+00     0.0000000000000000E+00 
    9.3749999999796829E-02     0.0000000000000000E+00     0.0000000000000000E+00 
    1.0937499999975120E-01     0.0000000000000000E+00     0.0000000000000000E+00 
    1.2499999999970560E-01     0.0000000000000000E+00     0.0000000000000000E+00 
    1.4062499999966011E-01     0.0000000000000000E+00     0.0000000000000000E+00 
    1.5624999999961450E-01     0.0000000000000000E+00     0.0000000000000000E+00 
    1.7187499999956890E-01     0.0000000000000000E+00     0.0000000000000000E+00 
    1.8749999999952341E-01     0.0000000000000000E+00     0.0000000000000000E+00 
    2.0312499999947781E-01     0.0000000000000000E+00     0.0000000000000000E+00 
    2.1874999999943229E-01     0.0000000000000000E+00     0.0000000000000000E+00 
    2.3437499999938941E-01     0.0000000000000000E+00     0.0000000000000000E+00 
    2.4999999999934661E-01     0.0000000000000000E+00     0.0000000000000000E+00 
    2.6562499999938499E-01     0.0000000000000000E+00     0.0000000000000000E+00 
    2.8124999999942352E-01     0.0000000000000000E+00     0.0000000000000000E+00 
    2.9687499999946471E-01     0.0000000000000000E+00     0.0000000000000000E+00 
    3.1249999999950578E-01     0.0000000000000000E+00     0.0000000000000000E+00 
    3.2812499999954697E-01     0.0000000000000000E+00     0.0000000000000000E+00 
    3.4374999999958822E-01     0.0000000000000000E+00     0.0000000000000000E+00 
    3.5937499999962941E-01     0.0000000000000000E+00     0.0000000000000000E+00 
    3.7499999999967060E-01     0.0000000000000000E+00     0.0000000000000000E+00 
    3.9062499999971179E-01     0.0000000000000000E+00     0.0000000000000000E+00 
    4.0624999999975292E-01     0.0000000000000000E+00     0.0000000000000000E+00 
    4.2187499999979411E-01     0.0000000000000000E+00     0.0000000000000000E+00 
    4.3749999999983530E-01     0.0000000000000000E+00     0.0000000000000000E+00 
    4.5312499999987649E-01     0.0000000000000000E+00     0.0000000000000000E+00 
    4.6874999999991768E-01     0.0000000000000000E+00     0.0000000000000000E+00 
    4.8437499999995881E-01     0.0000000000000000E+00     0.0000000000000000E+00 
    5.1562500000000289E-01     0.0000000000000000E+00     0.0000000000000000E+00 
    5.3125000000000000E-01     0.0000000000000000E+00     0.0000000000000000E+00 
    5.4687500000001565E-01     0.0000000000000000E+00     0.0000000000000000E+00 
    5.6249999999999989E-01     0.0000000000000000E+00     0.0000000000000000E+00 
    5.7812499999996880E-01     0.0000000000000000E+00     0.0000000000000000E+00 
    5.9374999999999978E-01     0.0000000000000000E+00     0.0000000000000000E+00 
    6.0937500000000666E-01     0.0000000000000000E+00     0.0000000000000000E+00 
    6.2499999999999978E-01     0.0000000000000000E+00     0.0000000000000000E+00 
    6.4062499999998734E-01     0.0000000000000000E+00     0.0000000000000000E+00 
    6.5624999999999978E-01     0.0000000000000000E+00     0.0000000000000000E+00 
    6.7187499999999822E-01     0.0000000000000000E+00     0.0000000000000000E+00 
    6.8749999999999978E-01     0.0000000000000000E+00     0.0000000000000000E+00 
    7.0312499999999978E-01     0.0000000000000000E+00     0.0000000000000000E+00 
    7.1874999999999978E-01     0.0000000000000000E+00     0.0000000000000000E+00 
    7.3437499999999645E-01     0.0000000000000000E+00     0.0000000000000000E+00 
    7.4999999999999978E-01     0.0000000000000000E+00     0.0000000000000000E+00 
    7.6562499999996581E-01     0.0000000000000000E+00     0.0000000000000000E+00 
    7.8124999999999978E-01     0.0000000000000000E+00     0.0000000000000000E+00 
    7.9687500000006262E-01     0.0000000000000000E+00     0.0000000000000000E+00 
    8.1249999999999989E-01     0.0000000000000000E+00     0.0000000000000000E+00 
    8.2812499999998379E-01     0.0000000000000000E+00     0.0000000000000000E+00 
    8.4374999999999989E-01     0.0000000000000000E+00     0.0000000000000000E+00 
    8.5937500000000644E-01     0.0000000000000000E+00     0.0000000000000000E+00 
    8.7499999999999989E-01     0.0000000000000000E+00     0.0000000000000000E+00 
    8.9062499999999778E-01     0.0000000000000000E+00     0.0000000000000000E+00 
    9.0625000000000000E-01     0.0000000000000000E+00     0.0000000000000000E+00 
    9.2187500000000644E-01     0.0000000000000000E+00     0.0000000000000000E+00 
    9.3750000000000000E-01     0.0000000000000000E+00     0.0000000000000000E+00 
    9.5312499999997879E-01     0.0000000000000000E+00     0.0000000000000000E+00 
    9.6875000000000000E-01     0.0000000000000000E+00     0.0000000000000000E+00 
    9.8437499999997480E-01     0.0000000000000000E+00     0.0000000000000000E+00 
    1.0000000000000000E+00     1.5624999999970180E-02     0.0000000000000000E+00 
    1.0000000000000000E+00     3.1249999999940509E-02     0.0000000000000000E+00 
    1.0000000000000000E+00     4.6874999999906783E-02     0.0000000000000000E+00 
    1.0000000000000000E+00     6.2499999999873053E-02     0.0000000000000000E+00 
    1.0000000000000000E+00     7.8124999999848468E-02     0.0000000000000000E+00 
    1.0000000000000000E+00     9.3749999999823891E-02     0.0000000000000000E+00 
    1.0000000000000000E+00     1.0937499999979861E-01     0.0000000000000000E+00 
    1.0000000000000000E+00     1.2499999999977340E-01     0.0000000000000000E+00 
    1.0000000000000000E+00     1.4062499999972911E-01     0.0000000000000000E+00 
    1.0000000000000000E+00     1.5624999999968489E-01     0.0000000000000000E+00 
    1.0000000000000000E+00     1.7187499999963929E-01     0.0000000000000000E+00 
    1.0000000000000000E+00     1.8749999999959369E-01     0.0000000000000000E+00 
    1.0000000000000000E+00     2.0312499999954800E-01     0.0000000000000000E+00 
    1.0000000000000000E+00     2.1874999999950240E-01     0.0000000000000000E+00 
    1.0000000000000000E+00     2.3437499999945680E-01     0.0000000000000000E+00 
    1.0000000000000000E+00     2.4999999999941119E-01     0.0000000000000000E+00 
    1.0000000000000000E+00     2.6562499999936562E-01     0.0000000000000000E+00 
    1.0000000000000000E+00     2.8124999999931999E-01     0.0000000000000000E+00 
    1.0000000000000000E+00     2.9687499999927452E-01     0.0000000000000000E+00 
    1.0000000000000000E+00     3.1249999999922901E-01     0.0000000000000000E+00 
    1.0000000000000000E+00     3.2812499999918338E-01     0.0000000000000000E+00 
    1.0000000000000000E+00     3.4374999999913791E-01     0.0000000000000000E+00 
    1.0000000000000000E+00     3.5937499999909228E-01     0.0000000000000000E+00 
    1.0000000000000000E+00     3.7499999999904682E-01     0.0000000000000000E+00 
    1.0000000000000000E+00     3.9062499999900119E-01     0.0000000000000000E+00 
    1.0000000000000000E+00     4.0624999999895561E-01     0.0000000000000000E+00 
    1.0000000000000000E+00     4.2187499999891009E-01     0.0000000000000000E+00 
    1.0000000000000000E+00     4.3749999999886452E-01     0.0000000000000000E+00 
    1.0000000000000000E+00     4.5312499999881900E-01     0.0000000000000000E+00 
    1.0000000000000000E+00     4.6874999999877343E-01     0.0000000000000000E+00 
    1.0000000000000000E+00     4.8437499999873318E-01     0.0000000000000000E+00 
    1.0000000000000000E+00     4.9999999999869310E-01     0.0000000000000000E+00 
    1.0000000000000000E+00     5.1562499999872891E-01     0.0000000000000000E+00 
    1.0000000000000000E+00     5.3124999999876465E-01     0.0000000000000000E+00 
    1.0000000000000000E+00     5.4687499999880584E-01     0.0000000000000000E+00 
    1.0000000000000000E+00     5.6249999999884692E-01     0.0000000000000000E+00 
    1.0000000000000000E+00     5.7812499999888822E-01     0.0000000000000000E+00 
    1.0000000000000000E+00     5.9374999999892941E-01     0.0000000000000000E+00 
    1.0000000000000000E+00     6.0937499999897060E-01     0.0000000000000000E+00 
    1.0000000000000000E+00     6.2499999999901168E-01     0.0000000000000000E+00 
    1.0000000000000000E+00     6.4062499999905287E-01     0.0000000000000000E+00 
    1.0000000000000000E+00     6.5624999999909406E-01     0.0000000000000000E+00 
    1.0000000000000000E+00     6.7187499999913525E-01     0.0000000000000000E+00 
    1.0000000000000000E+00     6.8749999999917644E-01     0.0000000000000000E+00 
    1.0000000000000000E+00     7.0312499999921751E-01     0.0000000000000000E+00 
    1.0000000000000000E+00     7.1874999999925870E-01     0.0000000000000000E+00 
    1.0000000000000000E+00     7.3437499999930000E-01     0.0000000000000000E+00 
    1.0000000000000000E+00     7.4999999999934119E-01     0.0000000000000000E+00 
    1.0000000000000000E+00     7.6562499999938238E-01     0.0000000000000000E+00 
    1.0000000000000000E+00     7.8124999999942357E-01     0.0000000000000000E+00 
    1.0000000000000000E+00     7.9687499999946465E-01     0.0000000000000000E+00 
    1.0000000000000000E+00     8.1249999999950584E-01     0.0000000000000000E+00 
[...]
CELL_DATA 8130 
SCALARS Pressure float 1 
LOOKUP_TABLE default 

    4.4845503605750991E+00 
    4.3767209169604531E+00 
    4.3071508767042541E+00 
    4.0290727480438759E+00 
    4.1477231116161617E+00 
    4.2180059310303557E+00 
    2.1068747385639228E+00 
    2.2173622309848691E+00 
    2.2838078852489536E+00 
    2.7685828797800953E+00 
    2.6155109108609036E+00 
    2.7747991494027793E+00 
    2.4471886187311251E+00 
    2.5523886501833197E+00 
    2.6023359538517865E+00 
    2.8744479710675370E+00 
    2.7572121909513609E+00 
    2.7052077382045212E+00 
    4.7210581297932901E+00 
    4.7112280662562638E+00 
    4.8480748248148648E+00 
    5.6631872097774103E+00 
    5.4971012729174973E+00 
    5.5566016479183808E+00 
    2.3359329275783209E+00 
    2.5010847010363872E+00 
    2.4413705131758485E+00 
    4.6791875436340336E+00 
    4.6058080968816384E+00 
    4.5166603142981439E+00 
    3.3187996117225715E+00 
    3.3923769225612248E+00 
    3.4823299082842301E+00 
    4.5846765060477956E+00 
    4.4732933250332625E+00 
    4.5796372743130833E+00 
    4.3295538126583786E+00 
    4.3871616805135778E+00 
    4.4547782614868510E+00 
    4.6717652283925863E+00 
    4.5815326063428659E+00 
    4.5117901192643046E+00 
    5.0719440295958789E+00 
    4.9006885216571847E+00 
    4.9811238883283284E+00 
    4.6307594781914778E+00 
    4.8206835844300544E+00 
    4.7431338360988864E+00 
    6.1608617831703558E+00 
    6.1884231232117237E+00 
    6.3340101553380457E+00 
    6.7970935434912727E+00 
    6.9655684391645298E+00 
    6.8304059229181835E+00 
    2.8635826379252496E+00 
    2.9466801115464345E+00 
    2.8026573358744220E+00 
    2.9255691306001821E+00 
    2.9265476727807078E+00 
    3.0505739275001575E+00 
    2.5682574144054908E+00 
    2.4309796802997887E+00 
    2.4754960463124966E+00 
    7.7449786172007578E+00 
    7.6053732518382695E+00 
    7.6113213511864615E+00 
    6.9363104371148925E+00 
    6.8176583182689452E+00 
    6.7857395499196747E+00 
    2.9856573939629700E+00 
    3.1295284857320067E+00 
    3.0633789259600386E+00 
    5.3792448024343065E-01 
    7.2912665703801138E-01 
    6.5215870716887980E-01 
    6.7206802524855114E+00 
    6.6790637763267062E+00 
    6.5449073100138460E+00 
    6.4415153559275806E+00 
    6.4420377350760401E+00 
    6.5805535106661326E+00 
    2.2408581448855012E+00 
    2.3563433072889688E+00 
    2.3194332543921070E+00 
    6.4491042272052885E+00 
    6.3176525427837058E+00 
    6.2882735581785569E+00 
    6.0079883066993540E+00 
    6.1279162978019555E+00 
    6.1615441556554833E+00 
    3.4337795219696461E+00 
    3.5793434309386627E+00 
    3.4316941942634132E+00 
    3.6524955862556179E+00 
    3.5635404487788054E+00 
    3.5273118108893606E+00 
    3.3148854061261028E+00 
    3.4044185753130582E+00 
    3.4412263553525331E+00 
    4.5238546736617300E+00 
    4.6622697614699042E+00 
    4.5267858793535671E+00 
    5.7375538881711492E+00 
    5.6398705745320115E+00 
    5.5698446922148044E+00 
    6.1861391107584094E+00 
    6.3278013295016127E+00 
    6.3162475343183058E+00 
    8.5283974444448329E-01 
    1.0641561416111789E+00 
    9.7160044630132225E-01 
    6.2081892112445294E+00 
    6.0355391353300947E+00 
    6.0302365105845670E+00 
    6.6264494702634709E+00 
    6.4776320878597504E+00 
    6.4363960449658366E+00 
    1.4365167290819874E+00 
    1.3383707346890601E+00 
    1.2643567844052752E+00 
    8.9849853698734372E-01 
    7.2201431257071458E-01 
    7.8951412766398121E-01 
    6.4596538558241114E+00 
    6.5661207838838243E+00 
    6.6359463516085313E+00 
    4.5542441081240383E+00 
    4.4092229496928601E+00 
    4.5433759575593227E+00 
    3.4773609153720608E+00 
    3.4936367835833466E+00 
    3.6369210251412079E+00 
    6.1012703813967661E+00 
    6.2288035731966014E+00 
    6.0870944846457933E+00 
    6.0804489530772399E+00 
    6.2356670855133762E+00 
    6.2428400769835886E+00 
    1.5624098665070034E+00 
    1.6131933163447776E+00 
    1.4677795596682479E+00 
    3.0810779854332515E+00 
    3.2477865221961584E+00 
    3.0978623246960284E+00 
    3.3175228273998711E+00 
    3.1823173600539389E+00 
    3.3309318679315680E+00 
    6.0151589370927869E+00 
    6.1787613733258144E+00 
    6.0510318580414859E+00 
    3.4187288874186619E+00 
    3.3654680162480299E+00 
    3.5387464390891163E+00 
    3.3828950960545829E+00 
    3.3724355153613654E+00 
    3.2412702701428278E+00 
    3.5112198193326996E+00 
    3.6072427645391802E+00 
    3.5089846205981665E+00 
    6.2217452649638316E+00 
    6.3921616825839296E+00 
    6.3552240373520599E+00 
    6.8418646733302797E+00 
    6.9543392684162182E+00 
    7.0085061371880677E+00 
    5.3441820162842628E+00 
    5.2301721621322494E+00 
    5.3992704137071383E+00 
    2.6533460459823099E+00 
    2.7668799638514581E+00 
    2.5984325700713722E+00 
    6.6927907634765935E+00 
    6.5183704022777524E+00 
    6.6042856896605935E+00 
    6.5962332314838763E+00 
    6.5133581586925731E+00 
    6.4461242323275005E+00 
    9.8334803178596442E-01 
    1.1050601448326094E+00 
    1.1803305879902857E+00 
    4.2886336843290146E-01 
    6.2196339644577403E-01 
    5.6303741087810533E-01 
    1.6270122568405605E+00 
    1.5059226494065441E+00 
    1.7092900196212348E+00 
    9.2142706779455985E-01 
    1.0244161888383676E+00 
    8.2514394214852227E-01 
    3.0030456476741785E+00 
    3.0737183957713952E+00 
    2.8871098095613612E+00 
    2.8886696663401450E+00 
    2.8452631198473788E+00 
    3.0318625639452654E+00 
    3.7946651228397923E+00 
    3.9119747793114166E+00 
    3.9144117501638460E+00 
    6.2903786199787390E+00 
    6.1613101411866147E+00 
    6.2883927414187957E+00 
    4.9653301041430087E+00 
    5.1105975748779224E+00 
    5.1038132492876471E+00 
    5.4364998922196417E+00 
    5.2728204689710330E+00 
    5.2766583965838727E+00 
    9.8194901721859473E-01 
    1.1852353827946824E+00 
    1.1139155983139639E+00 
    4.0934343409592266E-01 
    5.2169467551913795E-01 
    6.0827130685224051E-01 
    5.3619117519204682E+00 
    5.4368068930898179E+00 
    5.5086471937711021E+00 
    1.0237084896388295E+00 
    9.1251515842203268E-01 
    1.0544041278339584E+00 
    2.4146703121082598E+00 
    2.5691036409008015E+00 
    2.4626762114501330E+00 
    1.6739052244416455E+00 
    1.6927919684502215E+00 
    1.8020483245131622E+00 
    7.3577407526167864E+00 
    7.4745474284679405E+00 
    7.4628100519404192E+00 
    6.5597487481553580E+00 
    6.6467860309406070E+00 
    6.6842963955342611E+00 
    9.3490661342601544E-01 
    9.1772265748458759E-01 
    1.1057077567344873E+00 
    2.7242335619840480E-01 
    2.6566111847333879E-01 
    4.4434694101192562E-01 
    4.0999516152591999E+00 
    4.2594199531214114E+00 
    4.2580418726063387E+00 
    3.8869311602257453E+00 
    3.7318214344388818E+00 
    3.7259683956350615E+00 
    7.2821401210926533E+00 
    7.1690501048555815E+00 
    7.1241991992088751E+00 
    2.2777262795604587E+00 
    2.3242705998849491E+00 
    2.1775195051131782E+00 
    1.5428474015009124E+00 
    1.4286005485116795E+00 
    1.5600543768701363E+00 
    6.2280164065168000E+00 
    6.3166904042761809E+00 
    6.3788983997703221E+00 
    5.4120639399348158E-01 
    6.7068986021995280E-01 
    7.3821618846359782E-01 
    3.7211515642326365E+00 
    3.7094788196886617E+00 
    3.8405723461690950E+00 
    6.7429081341465391E+00 
    6.7371425798149547E+00 
    6.8758356043863262E+00 
    1.2413664939327202E+00 
    1.2525413235356821E+00 
    1.1130565628293936E+00 
    5.7838518310667579E+00 
    5.9317017092723541E+00 
    5.8024391209405781E+00 
    2.2123985609998975E+00 
    2.0634586717732488E+00 
    2.1945284334950448E+00 
    4.0262198685718351E+00 
    4.1771720733715512E+00 
    4.0221412641954926E+00 
    3.9692861104023267E+00 
    3.8171250813934017E+00 
    3.9704893970922202E+00 
    6.1676015978377956E+00 
    5.9784029618331642E+00 
    6.1060478363574173E+00 
    6.9354855973831206E+00 
    6.7899763157888007E+00 
    6.8364073041181550E+00 
    4.2867498299555500E+00 
    4.4483835165710399E+00 
    4.3118524170615586E+00 
    6.9903270093148286E+00 
    7.0417851406882024E+00 
    7.1405428928796564E+00 
    4.3020037198049499E+00 
    4.1181430418877678E+00 
    4.1970060220718688E+00 
    3.9046694811211378E+00 
    4.0525912381427114E+00 
    3.9742596927404761E+00 
    3.7161323833591196E+00 
    3.5299977204615618E+00 
    3.6813983266227477E+00 
    3.5451204689288013E-01 
    5.2343610785210104E-01 
    4.9192142781245263E-01 
    9.8228036388643791E-01 
    1.1135281512819357E+00 
    1.1668691526840755E+00 
    2.5717800921699849E+00 
    2.6113085452095848E+00 
    2.4578150800197904E+00 
    6.1402413082137777E+00 
    6.2982635380646483E+00 
    6.2487490116932367E+00 
    6.5434180364569041E+00 
    6.3912240089488161E+00 
    6.4448179590135366E+00 
    5.7326969989476932E+00 
    5.6544035838185920E+00 
    5.5759956698488438E+00 
    5.3337622837741643E+00 
    5.4347475476740650E+00 
    5.5114128442586843E+00 
    4.0166207880505338E+00 
    4.2043737833641828E+00 
    4.1071183164541969E+00 
    3.3259233410159350E+00 
    3.4008840866670202E+00 
    3.2187300981966458E+00 
    6.1567185272220231E+00 
    6.0926944031333488E+00 
    5.9805675258687616E+00 
    6.4573595886871216E+00 
    6.6323470681099366E+00 
    6.5576594849873349E+00 
    6.9264810263916399E+00 
    6.9436415016095792E+00 
    6.8051495816174317E+00 
    1.7378225859495844E-01 
    3.3028524942901666E-01 
    3.1045194957347372E-01 
    6.8271538475588134E+00 
    6.7092079392677775E+00 
    6.6721689017361570E+00 
    8.9551825571398624E-02 
    2.2807242987049428E-01 
    9.5578095842414168E-02 
    7.9027767202605173E+00 
    7.7625831856100600E+00 
    7.8942932098948777E+00 
    7.8205760042813726E+00 
    7.6644810823712675E+00 
    7.6814076586847868E+00 
    1.0646105304043965E+00 
    1.0487502755530369E+00 
    1.1849973903252768E+00 
    1.1616330101383907E+00 
    1.2794906767292804E+00 
    1.3189731414682613E+00 
    1.7524990780513914E+00 
    1.5861369884029148E+00 
    1.5984775708152423E+00 
    1.2543876248445480E+00 
    1.4224108151433024E+00 
    1.4113221605327919E+00 
    3.6488852076787031E+00 
    3.5076756733180123E+00 
    3.4660404514519740E+00 
    3.1849860716768665E+00 
    3.2979027782409887E+00 
    3.3502467797731676E+00 
    2.0778715182422354E+00 
    2.2569262034315578E+00 
    2.1360522745530157E+00 
    1.9373324755931596E+00 
    1.7704146781515118E+00 
    1.8400979723215247E+00 
    1.5032271091205378E+00 
    1.6837532605778829E+00 
    1.6170131835593211E+00 
    4.3552379212626029E+00 
    4.4999607784049624E+00 
    4.5162026246247757E+00 
    6.1170012410830763E+00 
    6.0657800458153863E+00 
    6.2098314325610735E+00 
    6.6792504111976445E+00 
    6.4852832408911825E+00 
    6.6240994683067429E+00 
    5.0560927064334438E+00 
    5.1443484424180568E+00 
    4.9987182732911029E+00 
    2.9338623232067635E+00 
    2.8453427195798064E+00 
    2.9904244205826847E+00 
    2.6796507379508072E+00 
    2.5261903967096511E+00 
    2.5276571278368061E+00 
    3.5853287124163571E+00 
    3.7315266246445327E+00 
    3.7299067412814417E+00 
    3.0668498432315525E+00 
    3.0214953241942450E+00 
    3.1771210015046405E+00 
    6.2926797932881131E+00 
    6.2716377892751582E+00 
    6.1251415838244831E+00 
    6.5624216850517385E+00 
    6.7025779773679144E+00 
    6.6530258954464880E+00 
    1.7815858872567700E+00 
    1.9414152893844157E+00 
    1.9609338868451009E+00 
    7.0267006797129861E-01 
    8.6309486886587694E-01 
    8.4940742833470095E-01 
    5.9884332675007075E+00 
    5.8503598506475623E+00 
    5.9279609105233169E+00 
    2.7306725298379995E+00 
    2.6748840564291969E+00 
    2.5790644893524317E+00 
    7.2781204401933186E+00 
    7.0871089848002065E+00 
    7.1118418430594641E+00 
    3.1314303588622039E+00 
    3.1212387837517714E+00 
    3.0016602957401468E+00 
    5.4444261408145014E+00 
    5.4392193661750552E+00 
    5.2906261993591652E+00 
    2.5507442844059338E+00 
    2.5567251306524641E+00 
    2.7049261382919703E+00 
    6.8612827305010953E+00 
    6.7925248452100710E+00 
    6.9185772729135904E+00 
    1.1361212406919541E+00 
    1.1806343951675355E+00 
    1.2943042674133656E+00 
    4.6062896011919419E+00 
    4.6470004544684995E+00 
    4.5025814261730783E+00 
    1.3859310735434416E+00 
    1.3498299531112916E+00 
    1.5085546086516226E+00 
    1.6054947475561623E+00 
    1.5794878236311640E+00 
    1.4284418610542184E+00 
    5.1749484036041791E+00 
    5.3145934477645467E+00 
    5.2528001318765654E+00 
    2.8144358179334463E+00 
    2.6734888594120796E+00 
    2.7381974070046060E+00 
    5.0152131843265799E+00 
    5.1622922034305176E+00 
    5.1004709012931260E+00 
    2.9759242134884869E+00 
    2.8285648878793412E+00 
    2.8934819427244536E+00 
    5.8123558970884277E+00 
    5.9780144197217977E+00 
    5.8447645305655787E+00 
    1.7781528037887291E+00 
    1.8639129627649218E+00 
    1.9315480252971382E+00 
    2.1643698279341761E+00 
    2.0645366088384858E+00 
    2.0041837157410152E+00 
    1.4537999460611950E+00 
    1.3060141991497012E+00 
    1.3383035809161563E+00 
    1.0560245346363402E+00 
    1.2010290482752288E+00 
    1.1613472321839464E+00 
    3.3390835327086914E+00 
    3.2284486888948969E+00 
    3.4010498273063381E+00 
    7.3258535331036798E+00 
    7.3398086756367773E+00 
    7.1789059318506441E+00 
    4.8004642153217763E+00 
    4.9211220126185902E+00 
    4.9190020689589726E+00 
    2.4464432622080894E+00 
    2.3914680937851909E+00 
    2.5765934857097461E+00 
    1.1910135912008060E+00 
    1.3451062489186565E+00 
    1.3227047726408525E+00 
    2.2169211249008063E+00 
    2.3347238107951327E+00 
    2.3667986498865949E+00 
    2.5074445890613855E+00 
    2.5936601094145852E+00 
    2.4148382320126243E+00 
    2.7092641259640855E+00 
    2.7251634551025745E+00 
    2.8590625991968412E+00 
    2.9108121907859914E+00 
    2.9336815684404551E+00 
    2.7914603006158227E+00 
    1.8456643204114767E+00 
    1.6973614996961561E+00 
    1.8475224994455337E+00 
    6.0159719069519273E+00 
    6.0675582306526072E+00 
    5.9227476310139568E+00 
    3.3274674286385881E+00 
    3.4395571882386351E+00 
    3.5099120447867889E+00 
    5.3055222517651011E+00 
    5.1452654057821148E+00 
    5.2027502829293342E+00 
    6.8084709448969649E-01 
    8.3162991094813898E-01 
    8.5294240910121466E-01 
    3.7331211082971323E+00 
    3.6605355160632080E+00 
    3.5812531852299285E+00 
    4.3531173626801154E+00 
    4.2938616808303998E+00 
    4.2300677856905509E+00 
    2.5112542600448839E+00 
    2.5790035421484778E+00 
    2.4379165306908570E+00 
    5.0847185787143010E+00 
    5.0242358465578034E+00 
    4.9163154076527036E+00 
    4.7063785294525706E+00 
    4.7788817055630322E+00 
    4.8879667616200209E+00 
    7.3829925122103841E+00 
    7.3904755251705563E+00 
    7.2144176993878233E+00 
    6.0270208372271428E-01 
    7.7725600660475247E-01 
    6.1520511943131617E-01 
    4.0562771784441436E+00 
    4.1491500129112104E+00 
    4.2199748088481401E+00 
    4.4074551073805894E+00 
    4.3495575651019935E+00 
    4.2782779673620031E+00 
    6.3441035272522859E+00 
    6.2888847912679724E+00 
    6.4835760906923143E+00 
    6.4304474573075456E+00 
    6.5110413625468748E+00 
    6.3225660756334108E+00 
    5.7896800720854147E+00 
    5.6862025379884065E+00 
    5.8587393383980499E+00 
    2.2066450466195215E+00 
    2.3097177867799776E+00 
    2.1376154092178741E+00 
    4.8202224870632993E+00 
    4.9088458217431823E+00 
    4.7452571824374514E+00 
    3.1775901873037835E+00 
    3.0894211572866555E+00 
    3.2530303862544110E+00 
    4.5400332557692291E+00 
    4.4058645588460426E+00 
    4.4697335084925793E+00 
    4.7047022101344558E+00 
    4.6982721528650266E+00 
    4.8401961406790930E+00 
    6.7803097773148506E+00 
    6.8645079332076762E+00 
    6.6945787842043210E+00 
    6.6808448938138323E+00 
    6.6612334589879874E+00 
    6.8249150844586426E+00 
    3.5588077483476122E+00 
    3.3801788659537864E+00 
    3.4582748143650037E+00 
    4.4332691081132127E+00 
    4.6127905276207093E+00 
    4.5464249728955037E+00 
    2.1682158947092991E+00 
    2.3179077505505643E+00 
    2.1876790367764620E+00 
    3.2878209607038262E+00 
    3.2792268799872906E+00 
    3.1671927229528483E+00 
    5.0128148480842931E+00 
    4.9328262010398003E+00 
    5.1191998206193974E+00 
    5.1159609809328019E+00 
    5.1611776007903076E+00 
    4.9654326283653534E+00 
    5.3920264900292212E+00 
    5.2388649213978935E+00 
    5.2912865395902191E+00 
    2.6020109949656742E+00 
    2.7555058606074323E+00 
    2.7015484999639381E+00 
    5.9025006244215117E+00 
    5.8648510004429548E+00 
    6.0154826214457024E+00 
    7.4749685856340731E-01 
    7.3722605142570841E-01 
    8.6532510750374225E-01 
    6.3309407649884850E+00 
    6.4411458938001482E+00 
    6.2894028083927793E+00 
    2.3879973280539657E+00 
    2.3094445298820867E+00 
    2.2215891601251259E+00 
    6.9410730705694785E+00 
    6.7932351550607306E+00 
    6.8295826878373953E+00 
    6.3349783434036153E+00 
    6.4920855858680122E+00 
    6.3839732252392221E+00 
    1.6591514313071123E+00 
    1.5004403702922759E+00 
    1.6080273763319766E+00 
    5.4260005546635401E+00 
    5.4541600024777752E+00 
    5.5737229543664677E+00 
    2.5813150994057308E+00 
    2.5492355002126361E+00 
    2.4298581359642610E+00 
    3.4160054709408034E+00 
    3.5338218137488324E+00 
    3.3640060431486911E+00 
    4.4199608730236140E+00 
    4.5558823547196292E+00 
    4.4939427027425962E+00 
    1.6195346601081522E+00 
    1.4982917262178757E+00 
    1.4599033827390036E+00 
    2.5202928629251491E+00 
    2.3683121414820927E+00 
    2.3853794767501899E+00 
    2.6243832795493818E+00 
    2.4687190142055067E+00 
    2.5671322580703380E+00 
    6.1784859951975610E+00 
    6.1394870330374660E+00 
    6.0335178746628664E+00 
    6.5146538356159427E+00 
    6.3580332274423075E+00 
    6.5034898254191074E+00 
    6.3788429639998716E+00 
    6.5047085532079167E+00 
    6.5376838999854181E+00 
    5.4880575757663799E+00 
    5.6365530382136058E+00 
    5.6228250260224319E+00 
    1.0771081397692923E+00 
    9.9867832931709000E-01 
    1.1345229490356963E+00 
    2.4604710328789059E+00 
    2.3584315876505055E+00 
    2.3233110987607062E+00 
    5.6117146832421598E+00 
    5.6550119250578552E+00 
    5.7618927140596483E+00 
    5.8843788730922624E+00 
    5.8656551987138359E+00 
    5.7509310267064242E+00 
    2.6802034700315636E+00 
    2.7957926978472192E+00 
    2.6680584056930723E+00 
    1.2463739150740032E+00 
    1.1157894740282515E+00 
    1.2080261773922487E+00 
    6.9008530196575322E+00 
    6.9824081915384575E+00 
    7.0405312521729808E+00 
    2.1024028334412299E+00 
    1.9924813216177253E+00 
    1.9930432036897257E+00 
    1.7324424398127074E+00 
    1.8601101805658857E+00 
    1.8562076238252558E+00 
    6.6003633356076490E+00 
    6.4747996299385253E+00 
    6.5878303905980502E+00 
    1.3900697442690755E+00 
    1.5169639490077322E+00 
    1.4030955247357946E+00 
    5.6340121153924461E+00 
    5.6499820462849364E+00 
    5.5249931754207084E+00 
    2.3556589766644254E+00 
    2.3488395363447574E+00 
    2.4681973328348805E+00 
    3.5991184235737128E+00 
    3.5640797100989015E+00 
    3.4235765878742153E+00 
    4.3859747932100559E+00 
    4.4173859787196346E+00 
    4.5640863643148908E+00 
    4.7790428817259150E+00 
    4.6275233394416508E+00 
    4.6889928496136246E+00 
    9.4792439147984020E-01 
    7.9149929649892503E-01 
    8.7154225294167864E-01 
    4.5854059378368248E+00 
    4.7537399562468270E+00 
    4.6965288739876119E+00 
    3.4115638237327226E+00 
    3.2402938556376393E+00 
    3.3037330800604479E+00 
    2.4097880877066311E+00 
    2.5608815084092598E+00 
    2.4364659158671618E+00 