# vtk DataFile Version 2.0
Pressure Field Data 
ASCII 
DATASET UNSTRUCTURED_GRID 

POINTS 9 float 

    0.0000000000000000E+00     0.0000000000000000E+00     0.0000000000000000E+00 
    1.0000000000000000E+00     0.0000000000000000E+00     0.0000000000000000E+00 
    1.0000000000000000E+00     1.0000000000000000E+00     0.0000000000000000E+00 
    0.0000000000000000E+00     1.0000000000000000E+00     0.0000000000000000E+00 
    4.9999999999869210E-01     0.0000000000000000E+00     0.0000000000000000E+00 
    1.0000000000000000E+00     4.9999999999869210E-01     0.0000000000000000E+00 
    5.0000000000205946E-01     1.0000000000000000E+00     0.0000000000000000E+00 
    0.0000000000000000E+00     5.0000000000205946E-01     0.0000000000000000E+00 
    5.0000000000037581E-01     5.0000000000037581E-01     0.0000000000000000E+00 

CELLS 8 32 

3 0 4 7 
3 7 4 8 
3 7 8 3 
3 3 8 6 
3 4 1 8 
3 8 1 5 
3 8 5 6 
3 6 5 2 

CELL_TYPES 8 

5 
5 
5 
5 
5 
5 
5 
5 

CELL_DATA 8 
SCALARS Pressure float 1 
LOOKUP_TABLE default 

    2.4999999957438210E+00 
    4.9999999787426477E+00 
    2.9999999824993262E+00 
    5.4999999884200035E+00 
    7.8333333235703293E+00 
    8.6666666570668003E+00 
    8.3333333161493091E+00 
    9.1666666632315881E+00 

