# vtk DataFile Version 2.0
Pressure Field Data 
ASCII 
DATASET UNSTRUCTURED_GRID 

POINTS 8259 float 

    0.0000000000000000E+00     0.0000000000000000E+00     0.0000000000000000E+00 
    5.0000000000000000E-01     0.0000000000000000E+00     0.0000000000000000E+00 
    1.0000000000000000E+00     0.0000000000000000E+00     0.0000000000000000E+00 
    1.0000000000000000E+00     1.0000000000000000E+00     0.0000000000000000E+00 
    5.0000000000000000E-01     1.0000000000000000E+00     0.0000000000000000E+00 
    0.0000000000000000E+00     1.0000000000000000E+00     0.0000000000000000E+00 
    1.5624999999970940E-02     0.0000000000000000E+00     0.0000000000000000E+00 
    3.1249999999936530E-02     0.0000000000000000E+00     0.0000000000000000E+00 
    4.6874999999911612E-02     0.0000000000000000E+00     0.0000000000000000E+00 
    6.2499999999886688E-02     0.0000000000000000E+00     0.0000000000000000E+00 
    7.8124999999841765E-02     0.0000000000000000E+00     0.0000000000000000E+00 
    9.3749999999796829E-02     0.0000000000000000E+00     0.0000000000000000E+00 
    1.0937499999975120E-01     0.0000000000000000E+00     0.0000000000000000E+00 
    1.2499999999970560E-01     0.0000000000000000E+00     0.0000000000000000E+00 
    1.4062499999966011E-01     0.0000000000000000E+00     0.0000000000000000E+00 
    1.5624999999961450E-01     0.0000000000000000E+00     0.0000000000000000E+00 
    1.7187499999956890E-01     0.0000000000000000E+00     0.0000000000000000E+00 
    1.8749999999952341E-01     0.0000000000000000E+00     0.0000000000000000E+00 
    2.0312499999947781E-01     0.0000000000000000E+00     0.0000000000000000E+00 
    2.1874999999943229E-01     0.0000000000000000E+00     0.0000000000000000E+00 
    2.3437499999938941E-01     0.0000000000000000E+00     0.0000000000000000E+00 
    2.4999999999934661E-01     0.0000000000000000E+00     0.0000000000000000E+00 
    2.6562499999938499E-01     0.0000000000000000E+00     0.0000000000000000E+00 
    2.8124999999942352E-01     0.0000000000000000E+00     0.0000000000000000E+00 
    2.9687499999946471E-01     0.0000000000000000E+00     0.0000000000000000E+00 
    3.1249999999950578E-01     0.0000000000000000E+00     0.0000000000000000E+00 
    3.2812499999954697E-01     0.0000000000000000E+00     0.0000000000000000E+00 
    3.4374999999958822E-01     0.0000000000000000E+00     0.0000000000000000E+00 
    3.5937499999962941E-01     0.0000000000000000E+00     0.0000000000000000E+00 
    3.7499999999967060E-01     0.0000000000000000E+00     0.0000000000000000E+00 
    3.9062499999971179E-01     0.0000000000000000E+00     0.0000000000000000E+00 
    4.0624999999975292E-01     0.0000000000000000E+00     0.0000000000000000E+00 
    4.2187499999979411E-01     0.0000000000000000E+00     0.0000000000000000E+00 
    4.3749999999983530E-01     0.0000000000000000E+00     0.0000000000000000E+00 
    4.5312499999987649E-01     0.0000000000000000E+00     0.0000000000000000E+00 
    4.6874999999991768E-01     0.0000000000000000E+00     0.0000000000000000E+00 
    4.8437499999995881E-01     0.0000000000000000E+00     0.0000000000000000E+00 
    5.1562500000000289E-01     0.0000000000000000E+00     0.0000000000000000E+00 
    5.3125000000000000E-01     0.0000000000000000E+00     0.0000000000000000E+00 
    5.4687500000001565E-01     0.0000000000000000E+00     0.0000000000000000E+00 
    5.6249999999999989E-01     0.0000000000000000E+00     0.0000000000000000E+00 
    5.7812499999996880E-01     0.0000000000000000E+00     0.0000000000000000E+00 
    5.9374999999999978E-01     0.0000000000000000E+00     0.0000000000000000E+00 
    6.0937500000000666E-01     0.0000000000000000E+00     0.0000000000000000E+00 
    6.2499999999999978E-01     0.0000000000000000E+00     0.0000000000000000E+00 
    6.4062499999998734E-01     0.0000000000000000E+00     0.0000000000000000E+00 
    6.5624999999999978E-01     0.0000000000000000E+00     0.0000000000000000E+00 
    6.7187499999999822E-01     0.0000000000000000E+00     0.0000000000000000E+00 
    6.8749999999999978E-01     0.0000000000000000E+00     0.0000000000000000E+00 
    7.0312499999999978E-01     0.0000000000000000E+00     0.0000000000000000E+00 
    7.1874999999999978E-01     0.0000000000000000E+00     0.0000000000000000E+00 
    7.3437499999999645E-01     0.0000000000000000E+00     0.0000000000000000E+00 
    7.4999999999999978E-01     0.0000000000000000E+00     0.0000000000000000E+00 
    7.6562499999996581E-01     0.0000000000000000E+00     0.0000000000000000E+00 
    7.8124999999999978E-01     0.0000000000000000E+00     0.0000000000000000E+00 
    7.9687500000006262E-01     0.0000000000000000E+00     0.0000000000000000E+00 
    8.1249999999999989E-01     0.0000000000000000E+00     0.0000000000000000E+00 
    8.2812499999998379E-01     0.0000000000000000E+00     0.0000000000000000E+00 
    8.4374999999999989E-01     0.0000000000000000E+00     0.0000000000000000E+00 
    8.5937500000000644E-01     0.0000000000000000E+00     0.0000000000000000E+00 
    8.7499999999999989E-01     0.0000000000000000E+00     0.0000000000000000E+00 
    8.9062499999999778E-01     0.0000000000000000E+00     0.0000000000000000E+00 
    9.0625000000000000E-01     0.0000000000000000E+00     0.0000000000000000E+00 
    9.2187500000000644E-01     0.0000000000000000E+00     0.0000000000000000E+00 
    9.3750000000000000E-01     0.0000000000000000E+00     0.0000000000000000E+00 
    9.5312499999997879E-01     0.0000000000000000E+00     0.0000000000000000E+00 
    9.6875000000000000E-01     0.0000000000000000E+00     0.0000000000000000E+00 
    9.8437499999997480E-01     0.0000000000000000E+00     0.0000000000000000E+00 
    1.0000000000000000E+00     1.5624999999970180E-02     0.0000000000000000E+00 
    1.0000000000000000E+00     3.1249999999940509E-02     0.0000000000000000E+00 
    1.0000000000000000E+00     4.6874999999906783E-02     0.0000000000000000E+00 
    1.0000000000000000E+00     6.2499999999873053E-02     0.0000000000000000E+00 
    1.0000000000000000E+00     7.8124999999848468E-02     0.0000000000000000E+00 
    1.0000000000000000E+00     9.3749999999823891E-02     0.0000000000000000E+00 
    1.0000000000000000E+00     1.0937499999979861E-01     0.0000000000000000E+00 
    1.0000000000000000E+00     1.2499999999977340E-01     0.0000000000000000E+00 
    1.0000000000000000E+00     1.4062499999972911E-01     0.0000000000000000E+00 
    1.0000000000000000E+00     1.5624999999968489E-01     0.0000000000000000E+00 
    1.0000000000000000E+00     1.7187499999963929E-01     0.0000000000000000E+00 
    1.0000000000000000E+00     1.8749999999959369E-01     0.0000000000000000E+00 
    1.0000000000000000E+00     2.0312499999954800E-01     0.0000000000000000E+00 
    1.0000000000000000E+00     2.1874999999950240E-01     0.0000000000000000E+00 
    1.0000000000000000E+00     2.3437499999945680E-01     0.0000000000000000E+00 
    1.0000000000000000E+00     2.4999999999941119E-01     0.0000000000000000E+00 
    1.0000000000000000E+00     2.6562499999936562E-01     0.0000000000000000E+00 
    1.0000000000000000E+00     2.8124999999931999E-01     0.0000000000000000E+00 
    1.0000000000000000E+00     2.9687499999927452E-01     0.0000000000000000E+00 
    1.0000000000000000E+00     3.1249999999922901E-01     0.0000000000000000E+00 
    1.0000000000000000E+00     3.2812499999918338E-01     0.0000000000000000E+00 
    1.0000000000000000E+00     3.4374999999913791E-01     0.0000000000000000E+00 
    1.0000000000000000E+00     3.5937499999909228E-01     0.0000000000000000E+00 
    1.0000000000000000E+00     3.7499999999904682E-01     0.0000000000000000E+00 
    1.0000000000000000E+00     3.9062499999900119E-01     0.0000000000000000E+00 
    1.0000000000000000E+00     4.0624999999895561E-01     0.0000000000000000E+00 
    1.0000000000000000E+00     4.2187499999891009E-01     0.0000000000000000E+00 
    1.0000000000000000E+00     4.3749999999886452E-01     0.0000000000000000E+00 
    1.0000000000000000E+00     4.5312499999881900E-01     0.0000000000000000E+00 
    1.0000000000000000E+00     4.6874999999877343E-01     0.0000000000000000E+00 
    1.0000000000000000E+00     4.8437499999873318E-01     0.0000000000000000E+00 
    1.0000000000000000E+00     4.9999999999869310E-01     0.0000000000000000E+00 
    1.0000000000000000E+00     5.1562499999872891E-01     0.0000000000000000E+00 
    1.0000000000000000E+00     5.3124999999876465E-01     0.0000000000000000E+00 
    1.0000000000000000E+00     5.4687499999880584E-01     0.0000000000000000E+00 
    1.0000000000000000E+00     5.6249999999884692E-01     0.0000000000000000E+00 
    1.0000000000000000E+00     5.7812499999888822E-01     0.0000000000000000E+00 
    1.0000000000000000E+00     5.9374999999892941E-01     0.0000000000000000E+00 
    1.0000000000000000E+00     6.0937499999897060E-01     0.0000000000000000E+00 
    1.0000000000000000E+00     6.2499999999901168E-01     0.0000000000000000E+00 
    1.0000000000000000E+00     6.4062499999905287E-01     0.0000000000000000E+00 
    1.0000000000000000E+00     6.5624999999909406E-01     0.0000000000000000E+00 
    1.0000000000000000E+00     6.7187499999913525E-01     0.0000000000000000E+00 
    1.0000000000000000E+00     6.8749999999917644E-01     0.0000000000000000E+00 
    1.0000000000000000E+00     7.0312499999921751E-01     0.0000000000000000E+00 
    1.0000000000000000E+00     7.1874999999925870E-01     0.0000000000000000E+00 
    1.0000000000000000E+00     7.3437499999930000E-01     0.0000000000000000E+00 
    1.0000000000000000E+00     7.4999999999934119E-01     0.0000000000000000E+00 
    1.0000000000000000E+00     7.6562499999938238E-01     0.0000000000000000E+00 
    1.0000000000000000E+00     7.8124999999942357E-01     0.0000000000000000E+00 
    1.0000000000000000E+00     7.9687499999946465E-01     0.0000000000000000E+00 
    1.0000000000000000E+00     8.1249999999950584E-01     0.0000000000000000E+00 
[...]
CELL_DATA 8130 
SCALARS Pressure float 1 
LOOKUP_TABLE default 

    4.4890926990948401E+00 
    4.3810792085865931E+00 
    4.3114333817568520E+00 
    4.0328121607025977E+00 
    4.1517003780254136E+00 
    4.2220567619645246E+00 
    2.1084716704624555E+00 
    2.2189123822414367E+00 
    2.2854472143602305E+00 
    2.7704185918181357E+00 
    2.6172504024176670E+00 
    2.7765501285211469E+00 
    2.4485340818893349E+00 
    2.5539901872178792E+00 
    2.6038020270674909E+00 
    2.8763499864083442E+00 
    2.7589485828678288E+00 
    2.7070270242480565E+00 
    4.7259958574928191E+00 
    4.7164204090110253E+00 
    4.8534362372527129E+00 
    5.6638800802465843E+00 
    5.4985117953654283E+00 
    5.5586791051375766E+00 
    2.3361878631045334E+00 
    2.5016519986305235E+00 
    2.4419629926421731E+00 
    4.6804825479684178E+00 
    4.6066066509489900E+00 
    4.5171453388693124E+00 
    3.3193099669332433E+00 
    3.3926513826799765E+00 
    3.4825179383249147E+00 
    4.5893694541087395E+00 
    4.4779216269633206E+00 
    4.5845596630793839E+00 
    4.3343051705028888E+00 
    4.3918443281001780E+00 
    4.4596313284425815E+00 
    4.6765991915897960E+00 
    4.5864219458690014E+00 
    4.5165056727938238E+00 
    5.0748804094912003E+00 
    4.9036041235190346E+00 
    4.9839303626105300E+00 
    4.6335664686108871E+00 
    4.8234060453032690E+00 
    4.7460199502822720E+00 
    6.1636103956620323E+00 
    6.1912743268777604E+00 
    6.3369575366319912E+00 
    6.8031920617684332E+00 
    6.9717245063569537E+00 
    6.8365789818469436E+00 
    2.8658690028605540E+00 
    2.9491459255631711E+00 
    2.8050965307474702E+00 
    2.9274828907503436E+00 
    2.9283333290468829E+00 
    3.0524546629612228E+00 
    2.5707633142888056E+00 
    2.4334593714364767E+00 
    2.4778602722625269E+00 
    7.7518436049272745E+00 
    7.6128175294753957E+00 
    7.6182177015761159E+00 
    6.9408305388174050E+00 
    6.8219093578177370E+00 
    6.7902245460205277E+00 
    2.9878535087193758E+00 
    3.1318201122149101E+00 
    3.0657596711290278E+00 
    5.3753688091550389E-01 
    7.2916973938881224E-01 
    6.5210364957342093E-01 
    6.7253592435913161E+00 
    6.6838323099738757E+00 
    6.5495514693547241E+00 
    6.4463689191178206E+00 
    6.4466718800308476E+00 
    6.5853176183112279E+00 
    2.2431552395726775E+00 
    2.3586383610594668E+00 
    2.3218749661437132E+00 
    6.4532156584806719E+00 
    6.3218097193496732E+00 
    6.2922839563719464E+00 
    6.0120666742475128E+00 
    6.1319350277736460E+00 
    6.1656835263092926E+00 
    3.4369504780282538E+00 
    3.5826285028569993E+00 
    3.4346247944272177E+00 
    3.6542360701698913E+00 
    3.5653469581194233E+00 
    3.5290269985054366E+00 
    3.3166511327550285E+00 
    3.4061437482600434E+00 
    3.4430613604941613E+00 
    4.5275517925157311E+00 
    4.6660736010416928E+00 
    4.5305262064602312E+00 
    5.7433779501369937E+00 
    5.6457422409420550E+00 
    5.5756009191957743E+00 
    6.1916626578949590E+00 
    6.3334497409584358E+00 
    6.3218947516331285E+00 
    8.5297815539329602E-01 
    1.0646134629049799E+00 
    9.7197048370774031E-01 
    6.2111324485689812E+00 
    6.0383880747612260E+00 
    6.0330950857735468E+00 
    6.6325922336647718E+00 
    6.4835675860873048E+00 
    6.4423732355812700E+00 
    1.4376835251366844E+00 
    1.3391563657840750E+00 
    1.2651140220261312E+00 
    8.9953902090810944E-01 
    7.2246683915384324E-01 
    7.9057877929298659E-01 
    6.4632527231117471E+00 
    6.5697081949281539E+00 
    6.6396108470970647E+00 
    4.5563772386588646E+00 
    4.4112819406990562E+00 
    4.5454036817278096E+00 
    3.4807048763749155E+00 
    3.4968997014910328E+00 
    3.6403393979206458E+00 
    6.1067985649861614E+00 
    6.2344132601447244E+00 
    6.0926621524426325E+00 
    6.0863492540902113E+00 
    6.2415770327321605E+00 
    6.2488407061194229E+00 
    1.5636485651449719E+00 
    1.6143582391649847E+00 
    1.4687449121747347E+00 
    3.0839147066485446E+00 
    3.2507725488893802E+00 
    3.1008215178445764E+00 
    3.3207838393658551E+00 
    3.1854511785867343E+00 
    3.3340880822669074E+00 
    6.0210721243457765E+00 
    6.1847862643359104E+00 
    6.0570489198943367E+00 
    3.4223409694236882E+00 
    3.3690057114078718E+00 
    3.5424147225466758E+00 
    3.3857647989507771E+00 
    3.3750591868301796E+00 
    3.2437443547678235E+00 
    3.5142713668600258E+00 
    3.6103360368526025E+00 
    3.5117914421147893E+00 
    6.2244555721864803E+00 
    6.3951161708435489E+00 
    6.3580288186232083E+00 
    6.8478923831957701E+00 
    6.9603689327651965E+00 
    7.0145609942516911E+00 
    5.3460666256816030E+00 
    5.2324495139176248E+00 
    5.4015842080857297E+00 
    2.6541362673810114E+00 
    2.7677447316802199E+00 
    2.5991469549753723E+00 
    6.6973205566763658E+00 
    6.5228685061172458E+00 
    6.6087378417539124E+00 
    6.5993439275816659E+00 
    6.5164583009344961E+00 
    6.4491742322866719E+00 
    9.8349877510451544E-01 
    1.1055968784140826E+00 
    1.1809891340179797E+00 
    4.2768998450405504E-01 
    6.2240728347265695E-01 
    5.6261116392902544E-01 
    1.6277405379707433E+00 
    1.5065849530957214E+00 
    1.7100921316278817E+00 
    9.2296994884431072E-01 
    1.0260479728344019E+00 
    8.2634178132585800E-01 
    3.0049770277979611E+00 
    3.0756439427296858E+00 
    2.8888950809197258E+00 
    2.8902365810049040E+00 
    2.8468964484444514E+00 
    3.0336431534626254E+00 
    3.7986592057783182E+00 
    3.9163138509050883E+00 
    3.9185176667695338E+00 
    6.2952541422322446E+00 
    6.1660666327445837E+00 
    6.2930626899706761E+00 
    4.9695064486262606E+00 
    5.1148496389266667E+00 
    5.1081106612406577E+00 
    5.4410050269927730E+00 
    5.2772313407451987E+00 
    5.2810131374789124E+00 
    9.8194763606787749E-01 
    1.1856963448718556E+00 
    1.1141780987114527E+00 
    4.0806381746728021E-01 
    5.2243873121715234E-01 
    6.0924250358878362E-01 
    5.3676734812179800E+00 
    5.4425693628338632E+00 
    5.5144953003263675E+00 
    1.0248855021572090E+00 
    9.1365304370074041E-01 
    1.0556532311364715E+00 
    2.4159275809513607E+00 
    2.5704388833726717E+00 
    2.4638697720864564E+00 
    1.6750714380348730E+00 
    1.6937694860994483E+00 
    1.8031165356685561E+00 
    7.3650373856141291E+00 
    7.4816216277599521E+00 
    7.4703065944569289E+00 
    6.5637660453579576E+00 
    6.6511188512745854E+00 
    6.6883087514112187E+00 
    9.3509098675135549E-01 
    9.1784914871072176E-01 
    1.1060541597443818E+00 
    2.7123454943211500E-01 
    2.6507072488792316E-01 
    4.4473114616838977E-01 
    4.1011403290656805E+00 
    4.2605837716225592E+00 
    4.2592325953074832E+00 
    3.8891468394606195E+00 
    3.7337489452973256E+00 
    3.7281814363438222E+00 
    7.2859121819853980E+00 
    7.1728403233149391E+00 
    7.1278924955135112E+00 
    2.2788013631174540E+00 
    2.3252854363702480E+00 
    2.1784830638332435E+00 
    1.5441037590038043E+00 
    1.4297943260889647E+00 
    1.5610763960606604E+00 
    6.2310831423777886E+00 
    6.3196765045958170E+00 
    6.3819907561877001E+00 
    5.4085463918920662E-01 
    6.7104639349342443E-01 
    7.3856493000461643E-01 
    3.7251509062228498E+00 
    3.7136534089337534E+00 
    3.8448968580019276E+00 
    6.7584236811465956E+00 
    6.7482967451071065E+00 
    6.8865311405070475E+00 
    1.2418586035464367E+00 
    1.2529677355600612E+00 
    1.1133947491809268E+00 
    5.7876346551536617E+00 
    5.9357017008651827E+00 
    5.8069434184383582E+00 
    2.2131203226979066E+00 
    2.0640349761808667E+00 
    2.1951122272420625E+00 
    4.0273399590806749E+00 
    4.1783202500487810E+00 
    4.0232824462616517E+00 
    3.9709668308394042E+00 
    3.8188352495099971E+00 
    3.9725675503260343E+00 
    6.1736391219541815E+00 
    5.9836290728460604E+00 
    6.1118882411056425E+00 
    6.9418263740345374E+00 
    6.7962047211831029E+00 
    6.8425798971321337E+00 
    4.2885778412676112E+00 
    4.4502857183517790E+00 
    4.3137950565094130E+00 
    6.9958393522677156E+00 
    7.0472027580926921E+00 
    7.1460518634876111E+00 
    4.3045830715419484E+00 
    4.1207566287002724E+00 
    4.1995117701208171E+00 
    3.9071295030432274E+00 
    4.0550497027711678E+00 
    3.9768246172225603E+00 
    3.7193420624881601E+00 
    3.5329793816488384E+00 
    3.6846928162937895E+00 
    3.5307143558153364E-01 
    5.2403473080586349E-01 
    4.9145105412295315E-01 
    9.8246330294799578E-01 
    1.1138525432507587E+00 
    1.1672724701341148E+00 
    2.5745164026086882E+00 
    2.6140524330949408E+00 
    2.4602881119044846E+00 
    6.1473378977166577E+00 
    6.3052277037782494E+00 
    6.2560380493321111E+00 
    6.5507471484600330E+00 
    6.3985951094240905E+00 
    6.4518570112128142E+00 
    5.7349547213750860E+00 
    5.6566259843799580E+00 
    5.5781346923525161E+00 
    5.3358336276777338E+00 
    5.4367700532161161E+00 
    5.5135599459078888E+00 
    4.0201384931375443E+00 
    4.2082050816530181E+00 
    4.1107285846697046E+00 
    3.3279564246521511E+00 
    3.4028751552691010E+00 
    3.2202995710453526E+00 
    6.1625777158531667E+00 
    6.0978425748553642E+00 
    5.9853092519392996E+00 
    6.4610705909118309E+00 
    6.6361024892412157E+00 
    6.5614576461685168E+00 
    6.9341431179994339E+00 
    6.9505337282475157E+00 
    6.8124932239883851E+00 
    1.7355600453834014E-01 
    3.3009900357657224E-01 
    3.1029794091592122E-01 
    6.8368813849225658E+00 
    6.7170211085362972E+00 
    6.6792803734088002E+00 
    8.9322311758900638E-02 
    2.2793571335882709E-01 
    9.5393026387864552E-02 
    7.9103429249154322E+00 
    7.7703223946814992E+00 
    7.9039840943898305E+00 
    7.8261206827162342E+00 
    7.6692876701565407E+00 
    7.6879693066878225E+00 
    1.0648587199736332E+00 
    1.0488388005598168E+00 
    1.1849887149453189E+00 
    1.1619572403233052E+00 
    1.2795352298090488E+00 
    1.3191665654463278E+00 
    1.7539990873151061E+00 
    1.5875875929547589E+00 
    1.5999114699916637E+00 
    1.2556661180884130E+00 
    1.4237910668845091E+00 
    1.4126827976006195E+00 
    3.6518985999027689E+00 
    3.5104574283849534E+00 
    3.4688394215800549E+00 
    3.1872644817271047E+00 
    3.3003640472168807E+00 
    3.3526999210411934E+00 
    2.0794847816140636E+00 
    2.2585957966608179E+00 
    2.1377598809878857E+00 
    1.9394984705350253E+00 
    1.7723422575898262E+00 
    1.8421113195890999E+00 
    1.5048927482217436E+00 
    1.6855974375115230E+00 
    1.6188055083497406E+00 
    4.3570196996080650E+00 
    4.5017250847902810E+00 
    4.5180631362351713E+00 
    6.1199832904020850E+00 
    6.0686629345582421E+00 
    6.2126890496933393E+00 
    6.6854730504514963E+00 
    6.4913174000898737E+00 
    6.6302880061924307E+00 
    5.0612152662224759E+00 
    5.1494969334192309E+00 
    5.0035726968327729E+00 
    2.9351564981596536E+00 
    2.8465328054192676E+00 
    2.9916655490752646E+00 
    2.6816191036214261E+00 
    2.5281066441087932E+00 
    2.5294972148122166E+00 
    3.5886014365766119E+00 
    3.7348519799783344E+00 
    3.7333360704442788E+00 
    3.0690504050904277E+00 
    3.0236919625499619E+00 
    3.1794716216604919E+00 
    6.2956720594465709E+00 
    6.2745127976842570E+00 
    6.1279788618231859E+00 
    6.5683990467423898E+00 
    6.7086207161014730E+00 
    6.6591330242554578E+00 
    1.7829760274912936E+00 
    1.9428969772713749E+00 
    1.9624396015067420E+00 
    7.0264160451952296E-01 
    8.6321080352670743E-01 
    8.4949537581181800E-01 
    5.9914483034361830E+00 
    5.8533307265132697E+00 
    5.9308939475694000E+00 
    2.7328379555749343E+00 
    2.6772496587181029E+00 
    2.5812702430536012E+00 
    7.2824667044239622E+00 
    7.0914340900601971E+00 
    7.1160511668970132E+00 
    3.1331735275933630E+00 
    3.1229910330297375E+00 
    3.0033609996758073E+00 
    5.4490289707377482E+00 
    5.4433347523805242E+00 
    5.2947452505362644E+00 
    2.5516498782283086E+00 
    2.5576100853846451E+00 
    2.7058681681451988E+00 
    6.8667067551610517E+00 
    6.7978260254681642E+00 
    6.9239088414027190E+00 
    1.1371983625942204E+00 
    1.1817504161368637E+00 
    1.2955485270386247E+00 
    4.6109661274956588E+00 
    4.6517014584864587E+00 
    4.5070817390605429E+00 
    1.3868017624711566E+00 
    1.3506446775734737E+00 
    1.5095887814154751E+00 
    1.6066803786144703E+00 
    1.5805834901553601E+00 
    1.4293434329661441E+00 
    5.1804013872795869E+00 
    5.3202744681022196E+00 
    5.2583539025779258E+00 
    2.8157642503703983E+00 
    2.6747426510457109E+00 
    2.7394322619713072E+00 
    5.0197892382165463E+00 
    5.1671429591288618E+00 
    5.1049225968001259E+00 
    2.9770866691598319E+00 
    2.8296753836766064E+00 
    2.8945652663526000E+00 
    5.8176825123392764E+00 
    5.9836266598327974E+00 
    5.8499210985131622E+00 
    1.7789508091691300E+00 
    1.8647805520172818E+00 
    1.9324065257456213E+00 
    2.1654080038877668E+00 
    2.0654812656996873E+00 
    2.0051491470567586E+00 
    1.4551373991834813E+00 
    1.3073075454072987E+00 
    1.3395867930382457E+00 
    1.0573582714405712E+00 
    1.2023903669607467E+00 
    1.1627773926019096E+00 
    3.3406987477990575E+00 
    3.2299358432118339E+00 
    3.4028701539307229E+00 
    7.3294815315750519E+00 
    7.3435307802943193E+00 
    7.1825595067924919E+00 
    4.8053679146959771E+00 
    4.9264824077314477E+00 
    4.9241633239206815E+00 
    2.4484011008327244E+00 
    2.3933916930866164E+00 
    2.5787868987963516E+00 
    1.1921669685115488E+00 
    1.3464197859046554E+00 
    1.3239906121799296E+00 
    2.2188927050504912E+00 
    2.3367763886136248E+00 
    2.3689388912259455E+00 
    2.5096518213273353E+00 
    2.5959688641465135E+00 
    2.4168940055777921E+00 
    2.7121230937682719E+00 
    2.7279801700454738E+00 
    2.8619851674564374E+00 
    2.9135945920424966E+00 
    2.9365889111044328E+00 
    2.7942503326531130E+00 
    1.8471943948415541E+00 
    1.6988266299343704E+00 
    1.8490038983531141E+00 
    6.0185030270884194E+00 
    6.0701172296705490E+00 
    5.9251929259924649E+00 
    3.3304664545641640E+00 
    3.4425562005099382E+00 
    3.5130096185420325E+00 
    5.3102253003461604E+00 
    5.1498737945948836E+00 
    5.2073162192609690E+00 
    6.8063272735193592E-01 
    8.3198993731661819E-01 
    8.5300377741452060E-01 
    3.7361291122600333E+00 
    3.6636135977186610E+00 
    3.5842345578287289E+00 
    4.3571108677783821E+00 
    4.2979205409447436E+00 
    4.2340057114779182E+00 
    2.5135145448503708E+00 
    2.5812825336822116E+00 
    2.4399519970398948E+00 
    5.0878349075104170E+00 
    5.0274573782348737E+00 
    4.9194313073789777E+00 
    4.7096150778019146E+00 
    4.7820350136584926E+00 
    4.8912234392216778E+00 
    7.3872189963544512E+00 
    7.3948191250615292E+00 
    7.2185949302996573E+00 
    6.0254602360234455E-01 
    7.7718769982307023E-01 
    6.1502655852372479E-01 
    4.0605903041992049E+00 
    4.1534281143537584E+00 
    4.2244210361940011E+00 
    4.4118511579698181E+00 
    4.3540173704612446E+00 
    4.2825758511910426E+00 
    6.3500618391966208E+00 
    6.2947555433481099E+00 
    6.4896424574086016E+00 
    6.4363634392974225E+00 
    6.5170856217493505E+00 
    6.3284265435392353E+00 
    5.7927521961063482E+00 
    5.6900464314662749E+00 
    5.8621601949381201E+00 
    2.2074056662156183E+00 
    2.3105777936161278E+00 
    2.1382985950125772E+00 
    4.8218427990086852E+00 
    4.9105164618065729E+00 
    4.7462436648285200E+00 
    3.1780653743169571E+00 
    3.0897881651713459E+00 
    3.2532830145156937E+00 
    4.5442595236083312E+00 
    4.4100040457983773E+00 
    4.4738223866895845E+00 
    4.7068545097011096E+00 
    4.7003094602133144E+00 
    4.8423024950683242E+00 
    6.7841572022440193E+00 
    6.8684678255332150E+00 
    6.6984518532616466E+00 
    6.6848927402557621E+00 
    6.6651864428414402E+00 
    6.8289643749845981E+00 
    3.5612404662869444E+00 
    3.3823865019613213E+00 
    3.4606432570509509E+00 
    4.4348191682707476E+00 
    4.6143617546990754E+00 
    4.5480415125785285E+00 
    2.1701577506273022E+00 
    2.3200107659294158E+00 
    2.1896672970761966E+00 
    3.2906586713729120E+00 
    3.2817528728044976E+00 
    3.1696629043810183E+00 
    5.0146410027079753E+00 
    4.9345580732019769E+00 
    5.1211656950035147E+00 
    5.1179591682855587E+00 
    5.1631941714471612E+00 
    4.9671874898165509E+00 
    5.3971091086670278E+00 
    5.2434413204387234E+00 
    5.2963026301214944E+00 
    2.6030212034541722E+00 
    2.7565350922188050E+00 
    2.7026034673411079E+00 
    5.9065060330845895E+00 
    5.8687134925717457E+00 
    6.0193972533810847E+00 
    7.4761136160894714E-01 
    7.3730392633707154E-01 
    8.6559047977321435E-01 
    6.3346390618537614E+00 
    6.4449401600215097E+00 
    6.2932070158051454E+00 
    2.3901282189497786E+00 
    2.3113634174798667E+00 
    2.2234529267499190E+00 
    6.9474652513146529E+00 
    6.7992550006609571E+00 
    6.8358906308170155E+00 
    6.3436332421508510E+00 
    6.5016253705250229E+00 
    6.3928934692273245E+00 
    1.6597960882306741E+00 
    1.5010228033841770E+00 
    1.6086488598946025E+00 
    5.4287240825890626E+00 
    5.4585532955751290E+00 
    5.5782383939554805E+00 
    2.5819261000195466E+00 
    2.5497895230690890E+00 
    2.4303558583723501E+00 
    3.4194497454493784E+00 
    3.5373728600333125E+00 
    3.3674694394397320E+00 
    4.4221745641089507E+00 
    4.5581850717662924E+00 
    4.4961295752553054E+00 
    1.6201505153053124E+00 
    1.4988204974918509E+00 
    1.4604306421653634E+00 
    2.5210265760734840E+00 
    2.3689170217357618E+00 
    2.3861501988202876E+00 
    2.6258192744757674E+00 
    2.4701254415074665E+00 
    2.5685736118133753E+00 
    6.1821453696176558E+00 
    6.1432531541898951E+00 
    6.0372052509056768E+00 
    6.5186979925058228E+00 
    6.3619950643257681E+00 
    6.5074223617587821E+00 
    6.3877137721465713E+00 
    6.5134990630174157E+00 
    6.5470654109389939E+00 
    5.4905011886111623E+00 
    5.6406805239972790E+00 
    5.6257465245093465E+00 
    1.0775849404736653E+00 
    9.9918512659481162E-01 
    1.1352585705759142E+00 
    2.4630769284698446E+00 
    2.3607373487801868E+00 
    2.3256710918624193E+00 
    5.6144247494426400E+00 
    5.6576721033044457E+00 
    5.7646046089885949E+00 
    5.8870275975558668E+00 
    5.8683735711685632E+00 
    5.7535752093396448E+00 
    2.6821672259322260E+00 
    2.7978240409663990E+00 
    2.6699563377196305E+00 
    1.2471012848010248E+00 
    1.1163482093121655E+00 
    1.2086672894514423E+00 
    6.9046105554325754E+00 
    6.9860981385514416E+00 
    7.0443398828183978E+00 
    2.1037109400680944E+00 
    1.9938128316742940E+00 
    1.9942981000204449E+00 
    1.7337954602433976E+00 
    1.8613895925000028E+00 
    1.8575931815458024E+00 
    6.6099614736361847E+00 
    6.4833818345942360E+00 
    6.5980573707828407E+00 
    1.3905523569061364E+00 
    1.5174870390731712E+00 
    1.4036257834909494E+00 
    5.6391054269280492E+00 
    5.6545745098714999E+00 
    5.5292687633160185E+00 
    2.3565957513718652E+00 
    2.3492709113302706E+00 
    2.4685329623865573E+00 
    3.6014641837721277E+00 
    3.5662695226868717E+00 
    3.4257276082712038E+00 
    4.3874352826304932E+00 
    4.4187572932334813E+00 
    4.5655429493054198E+00 
    4.7814028371934034E+00 
    4.6297629385310675E+00 
    4.6913243464566463E+00 
    9.4825727814130667E-01 
    7.9167603478352533E-01 
    8.7176865487815303E-01 
    4.5892441099855610E+00 
    4.7578083554477733E+00 
    4.7003695835955002E+00 
    3.4128284046415827E+00 
    3.2415072116669781E+00 
    3.3049364277790696E+00 
    2.4119181059941446E+00 
    2.5632386058468044E+00 
    2.4386401500638635E+00 