# vtk DataFile Version 2.0
Pressure Field Data 
ASCII 
DATASET UNSTRUCTURED_GRID 

POINTS 8259 float 

    0.0000000000000000E+00     0.0000000000000000E+00     0.0000000000000000E+00 
    5.0000000000000000E-01     0.0000000000000000E+00     0.0000000000000000E+00 
    1.0000000000000000E+00     0.0000000000000000E+00     0.0000000000000000E+00 
    1.0000000000000000E+00     1.0000000000000000E+00     0.0000000000000000E+00 
    5.0000000000000000E-01     1.0000000000000000E+00     0.0000000000000000E+00 
    0.0000000000000000E+00     1.0000000000000000E+00     0.0000000000000000E+00 
    1.5624999999970940E-02     0.0000000000000000E+00     0.0000000000000000E+00 
    3.1249999999936530E-02     0.0000000000000000E+00     0.0000000000000000E+00 
    4.6874999999911612E-02     0.0000000000000000E+00     0.0000000000000000E+00 
    6.2499999999886688E-02     0.0000000000000000E+00     0.0000000000000000E+00 
    7.8124999999841765E-02     0.0000000000000000E+00     0.0000000000000000E+00 
    9.3749999999796829E-02     0.0000000000000000E+00     0.0000000000000000E+00 
    1.0937499999975120E-01     0.0000000000000000E+00     0.0000000000000000E+00 
    1.2499999999970560E-01     0.0000000000000000E+00     0.0000000000000000E+00 
    1.4062499999966011E-01     0.0000000000000000E+00     0.0000000000000000E+00 
    1.5624999999961450E-01     0.0000000000000000E+00     0.0000000000000000E+00 
    1.7187499999956890E-01     0.0000000000000000E+00     0.0000000000000000E+00 
    1.8749999999952341E-01     0.0000000000000000E+00     0.0000000000000000E+00 
    2.0312499999947781E-01     0.0000000000000000E+00     0.0000000000000000E+00 
    2.1874999999943229E-01     0.0000000000000000E+00     0.0000000000000000E+00 
    2.3437499999938941E-01     0.0000000000000000E+00     0.0000000000000000E+00 
    2.4999999999934661E-01     0.0000000000000000E+00     0.0000000000000000E+00 
    2.6562499999938499E-01     0.0000000000000000E+00     0.0000000000000000E+00 
    2.8124999999942352E-01     0.0000000000000000E+00     0.0000000000000000E+00 
    2.9687499999946471E-01     0.0000000000000000E+00     0.0000000000000000E+00 
    3.1249999999950578E-01     0.0000000000000000E+00     0.0000000000000000E+00 
    3.2812499999954697E-01     0.0000000000000000E+00     0.0000000000000000E+00 
    3.4374999999958822E-01     0.0000000000000000E+00     0.0000000000000000E+00 
    3.5937499999962941E-01     0.0000000000000000E+00     0.0000000000000000E+00 
    3.7499999999967060E-01     0.0000000000000000E+00     0.0000000000000000E+00 
    3.9062499999971179E-01     0.0000000000000000E+00     0.0000000000000000E+00 
    4.0624999999975292E-01     0.0000000000000000E+00     0.0000000000000000E+00 
    4.2187499999979411E-01     0.0000000000000000E+00     0.0000000000000000E+00 
    4.3749999999983530E-01     0.0000000000000000E+00     0.0000000000000000E+00 
    4.5312499999987649E-01     0.0000000000000000E+00     0.0000000000000000E+00 
    4.6874999999991768E-01     0.0000000000000000E+00     0.0000000000000000E+00 
    4.8437499999995881E-01     0.0000000000000000E+00     0.0000000000000000E+00 
    5.1562500000000289E-01     0.0000000000000000E+00     0.0000000000000000E+00 
    5.3125000000000000E-01     0.0000000000000000E+00     0.0000000000000000E+00 
    5.4687500000001565E-01     0.0000000000000000E+00     0.0000000000000000E+00 
    5.6249999999999989E-01     0.0000000000000000E+00     0.0000000000000000E+00 
    5.7812499999996880E-01     0.0000000000000000E+00     0.0000000000000000E+00 
    5.9374999999999978E-01     0.0000000000000000E+00     0.0000000000000000E+00 
    6.0937500000000666E-01     0.0000000000000000E+00     0.0000000000000000E+00 
    6.2499999999999978E-01     0.0000000000000000E+00     0.0000000000000000E+00 
    6.4062499999998734E-01     0.0000000000000000E+00     0.0000000000000000E+00 
    6.5624999999999978E-01     0.0000000000000000E+00     0.0000000000000000E+00 
    6.7187499999999822E-01     0.0000000000000000E+00     0.0000000000000000E+00 
    6.8749999999999978E-01     0.0000000000000000E+00     0.0000000000000000E+00 
    7.0312499999999978E-01     0.0000000000000000E+00     0.0000000000000000E+00 
    7.1874999999999978E-01     0.0000000000000000E+00     0.0000000000000000E+00 
    7.3437499999999645E-01     0.0000000000000000E+00     0.0000000000000000E+00 
    7.4999999999999978E-01     0.0000000000000000E+00     0.0000000000000000E+00 
    7.6562499999996581E-01     0.0000000000000000E+00     0.0000000000000000E+00 
    7.8124999999999978E-01     0.0000000000000000E+00     0.0000000000000000E+00 
    7.9687500000006262E-01     0.0000000000000000E+00     0.0000000000000000E+00 
    8.1249999999999989E-01     0.0000000000000000E+00     0.0000000000000000E+00 
    8.2812499999998379E-01     0.0000000000000000E+00     0.0000000000000000E+00 
    8.4374999999999989E-01     0.0000000000000000E+00     0.0000000000000000E+00 
    8.5937500000000644E-01     0.0000000000000000E+00     0.0000000000000000E+00 
    8.7499999999999989E-01     0.0000000000000000E+00     0.0000000000000000E+00 
    8.9062499999999778E-01     0.0000000000000000E+00     0.0000000000000000E+00 
    9.0625000000000000E-01     0.0000000000000000E+00     0.0000000000000000E+00 
    9.2187500000000644E-01     0.0000000000000000E+00     0.0000000000000000E+00 
    9.3750000000000000E-01     0.0000000000000000E+00     0.0000000000000000E+00 
    9.5312499999997879E-01     0.0000000000000000E+00     0.0000000000000000E+00 
    9.6875000000000000E-01     0.0000000000000000E+00     0.0000000000000000E+00 
    9.8437499999997480E-01     0.0000000000000000E+00     0.0000000000000000E+00 
    1.0000000000000000E+00     1.5624999999970180E-02     0.0000000000000000E+00 
    1.0000000000000000E+00     3.1249999999940509E-02     0.0000000000000000E+00 
    1.0000000000000000E+00     4.6874999999906783E-02     0.0000000000000000E+00 
    1.0000000000000000E+00     6.2499999999873053E-02     0.0000000000000000E+00 
    1.0000000000000000E+00     7.8124999999848468E-02     0.0000000000000000E+00 
    1.0000000000000000E+00     9.3749999999823891E-02     0.0000000000000000E+00 
    1.0000000000000000E+00     1.0937499999979861E-01     0.0000000000000000E+00 
    1.0000000000000000E+00     1.2499999999977340E-01     0.0000000000000000E+00 
    1.0000000000000000E+00     1.4062499999972911E-01     0.0000000000000000E+00 
    1.0000000000000000E+00     1.5624999999968489E-01     0.0000000000000000E+00 
    1.0000000000000000E+00     1.7187499999963929E-01     0.0000000000000000E+00 
    1.0000000000000000E+00     1.8749999999959369E-01     0.0000000000000000E+00 
    1.0000000000000000E+00     2.0312499999954800E-01     0.0000000000000000E+00 
    1.0000000000000000E+00     2.1874999999950240E-01     0.0000000000000000E+00 
    1.0000000000000000E+00     2.3437499999945680E-01     0.0000000000000000E+00 
    1.0000000000000000E+00     2.4999999999941119E-01     0.0000000000000000E+00 
    1.0000000000000000E+00     2.6562499999936562E-01     0.0000000000000000E+00 
    1.0000000000000000E+00     2.8124999999931999E-01     0.0000000000000000E+00 
    1.0000000000000000E+00     2.9687499999927452E-01     0.0000000000000000E+00 
    1.0000000000000000E+00     3.1249999999922901E-01     0.0000000000000000E+00 
    1.0000000000000000E+00     3.2812499999918338E-01     0.0000000000000000E+00 
    1.0000000000000000E+00     3.4374999999913791E-01     0.0000000000000000E+00 
    1.0000000000000000E+00     3.5937499999909228E-01     0.0000000000000000E+00 
    1.0000000000000000E+00     3.7499999999904682E-01     0.0000000000000000E+00 
    1.0000000000000000E+00     3.9062499999900119E-01     0.0000000000000000E+00 
    1.0000000000000000E+00     4.0624999999895561E-01     0.0000000000000000E+00 
    1.0000000000000000E+00     4.2187499999891009E-01     0.0000000000000000E+00 
    1.0000000000000000E+00     4.3749999999886452E-01     0.0000000000000000E+00 
    1.0000000000000000E+00     4.5312499999881900E-01     0.0000000000000000E+00 
    1.0000000000000000E+00     4.6874999999877343E-01     0.0000000000000000E+00 
    1.0000000000000000E+00     4.8437499999873318E-01     0.0000000000000000E+00 
    1.0000000000000000E+00     4.9999999999869310E-01     0.0000000000000000E+00 
    1.0000000000000000E+00     5.1562499999872891E-01     0.0000000000000000E+00 
    1.0000000000000000E+00     5.3124999999876465E-01     0.0000000000000000E+00 
    1.0000000000000000E+00     5.4687499999880584E-01     0.0000000000000000E+00 
    1.0000000000000000E+00     5.6249999999884692E-01     0.0000000000000000E+00 
    1.0000000000000000E+00     5.7812499999888822E-01     0.0000000000000000E+00 
    1.0000000000000000E+00     5.9374999999892941E-01     0.0000000000000000E+00 
    1.0000000000000000E+00     6.0937499999897060E-01     0.0000000000000000E+00 
    1.0000000000000000E+00     6.2499999999901168E-01     0.0000000000000000E+00 
    1.0000000000000000E+00     6.4062499999905287E-01     0.0000000000000000E+00 
    1.0000000000000000E+00     6.5624999999909406E-01     0.0000000000000000E+00 
    1.0000000000000000E+00     6.7187499999913525E-01     0.0000000000000000E+00 
    1.0000000000000000E+00     6.8749999999917644E-01     0.0000000000000000E+00 
    1.0000000000000000E+00     7.0312499999921751E-01     0.0000000000000000E+00 
    1.0000000000000000E+00     7.1874999999925870E-01     0.0000000000000000E+00 
    1.0000000000000000E+00     7.3437499999930000E-01     0.0000000000000000E+00 
    1.0000000000000000E+00     7.4999999999934119E-01     0.0000000000000000E+00 
    1.0000000000000000E+00     7.6562499999938238E-01     0.0000000000000000E+00 
    1.0000000000000000E+00     7.8124999999942357E-01     0.0000000000000000E+00 
    1.0000000000000000E+00     7.9687499999946465E-01     0.0000000000000000E+00 
    1.0000000000000000E+00     8.1249999999950584E-01     0.0000000000000000E+00 
[...]
CELL_DATA 8130 
SCALARS Pressure float 1 
LOOKUP_TABLE default 

    4.4886053615118726E+00 
    4.3806089540672337E+00 
    4.3109730067788883E+00 
    4.0324159403987707E+00 
    4.1512760545700678E+00 
    4.2216241708214532E+00 
    2.1083193950441448E+00 
    2.2187656852555748E+00 
    2.2852950153342841E+00 
    2.7702609902680715E+00 
    2.6170980810285411E+00 
    2.7763991484971822E+00 
    2.4484130919293197E+00 
    2.5538353825967137E+00 
    2.6036680422024601E+00 
    2.8761630729538883E+00 
    2.7587810126054246E+00 
    2.7068466886706148E+00 
    4.7254674510722445E+00 
    4.7158474262919992E+00 
    4.8528445760603356E+00 
    5.6638285496175831E+00 
    5.4984111880970437E+00 
    5.5584992068096737E+00 
    2.3361743926609586E+00 
    2.5016189707885386E+00 
    2.4419305328935725E+00 
    4.6804091035973636E+00 
    4.6065814116208674E+00 
    4.5171232323637014E+00 
    3.3192895070936568E+00 
    3.3926503970546835E+00 
    3.4825130202245402E+00 
    4.5888738840990868E+00 
    4.4774286388880222E+00 
    4.5840221283760796E+00 
    4.3337809208732265E+00 
    4.3913495984826909E+00 
    4.4591014742485635E+00 
    4.6760950650638646E+00 
    4.5858993895216225E+00 
    4.5160118177791615E+00 
    5.0746559593619978E+00 
    4.9033672616492030E+00 
    4.9837205318782942E+00 
    4.6333276527287470E+00 
    4.8231975670242377E+00 
    4.7457760503125703E+00 
    6.1634904243062847E+00 
    6.1911445939437160E+00 
    6.3368189632215923E+00 
    6.8026558604484855E+00 
    6.9711948248482187E+00 
    6.8360365559936955E+00 
    2.8656572982519237E+00 
    2.9489097955186399E+00 
    2.8048610770917559E+00 
    2.9273184875270806E+00 
    2.9281819508450480E+00 
    3.0522963120959443E+00 
    2.5705052793351775E+00 
    2.4331965178771977E+00 
    2.4776218628801092E+00 
    7.7513416438977645E+00 
    7.6121793190018279E+00 
    7.6176901833220780E+00 
    6.9404641428529654E+00 
    6.8215800470697250E+00 
    6.7898588037286531E+00 
    2.9876565177561059E+00 
    3.1316131847007131E+00 
    3.0655394634916471E+00 
    5.3756902599718059E-01 
    7.2915971780260846E-01 
    6.5210415466893601E-01 
    6.7249352797142956E+00 
    6.6833882450215816E+00 
    6.5491192133033476E+00 
    6.4459051019287612E+00 
    6.4462399713318508E+00 
    6.5848732758340818E+00 
    2.2429118885903678E+00 
    2.3584054146208344E+00 
    2.3216133256116973E+00 
    6.4528831523350032E+00 
    6.3214710670344658E+00 
    6.2919622047068575E+00 
    6.0117108289797949E+00 
    6.1315967633619284E+00 
    6.1653257470952596E+00 
    3.4366125865114627E+00 
    3.5822796483572694E+00 
    3.4343220005998143E+00 
    3.6541169949308228E+00 
    3.5652093927965982E+00 
    3.5289075204595441E+00 
    3.3165105393921777E+00 
    3.4060145980524319E+00 
    3.4429143692081077E+00 
    4.5271811661433805E+00 
    4.6656910182582223E+00 
    4.5301492911062526E+00 
    5.7427989114536011E+00 
    5.6451461160562051E+00 
    5.5750166679677404E+00 
    6.1911536456191234E+00 
    6.3329267424336386E+00 
    6.3213745322655184E+00 
    8.5295557256388255E-01 
    1.0645608012035879E+00 
    9.7192719618033596E-01 
    6.2109871563881436E+00 
    6.0382460649062182E+00 
    6.0329553601837969E+00 
    6.6319879031509492E+00 
    6.4829923908497795E+00 
    6.4417796878967071E+00 
    1.4375561473269203E+00 
    1.3390735931502513E+00 
    1.2650323943684876E+00 
    8.9939870258198473E-01 
    7.2240968918442905E-01 
    7.9042536217512316E-01 
    6.4629954666880431E+00 
    6.5694570238640910E+00 
    6.6393506265573272E+00 
    4.5562539188245177E+00 
    4.4111650693352207E+00 
    4.5453002223455998E+00 
    3.4803611693575127E+00 
    3.4965677542871054E+00 
    3.6399906821459247E+00 
    6.1062853235783896E+00 
    6.2338967521861619E+00 
    6.0921444586013616E+00 
    6.0857890562055683E+00 
    6.2410246595615408E+00 
    6.2482763947992233E+00 
    1.5635155887538270E+00 
    1.6142358698262305E+00 
    1.4686441739324299E+00 
    3.0836283180812742E+00 
    3.2504709578398789E+00 
    3.1005182747555824E+00 
    3.3204471953633483E+00 
    3.1851273426692770E+00 
    3.3337659809727747E+00 
    6.0205056649819380E+00 
    6.1842146093562675E+00 
    6.0564708471864703E+00 
    3.4219493742740434E+00 
    3.3686217821460005E+00 
    3.5420202598051311E+00 
    3.3854745775683086E+00 
    3.3748161697389407E+00 
    3.2435185595016747E+00 
    3.5139536930360502E+00 
    3.6100176103248138E+00 
    3.5115209844798305E+00 
    6.2243434043852570E+00 
    6.3949769683328128E+00 
    6.3579086986603484E+00 
    6.8473720499893931E+00 
    6.9598562549209699E+00 
    7.0140519617949479E+00 
    5.3459271269828204E+00 
    5.2322685333214052E+00 
    5.4013808457517012E+00 
    2.6540912636316629E+00 
    2.7676993687971190E+00 
    2.5991093080253447E+00 
    6.6969211970126796E+00 
    6.5224596522023655E+00 
    6.6083476287749514E+00 
    6.5991789329822232E+00 
    6.5162874875456955E+00 
    6.4490122513780355E+00 
    9.8348259849359354E-01 
    1.1055415258804939E+00 
    1.1809218688702707E+00 
    4.2785446540961081E-01 
    6.2232996255412798E-01 
    5.6267296579907855E-01 
    1.6276806276945943E+00 
    1.5065294352852014E+00 
    1.7100249672121344E+00 
    9.2279837687844724E-01 
    1.0258776949044617E+00 
    8.2618041130226549E-01 
    3.0047893848871441E+00 
    3.0754579274380451E+00 
    2.8887231447330071E+00 
    2.8900906373486448E+00 
    2.8467419461885966E+00 
    3.0334727605152447E+00 
    3.7982238020561838E+00 
    3.9158291703923003E+00 
    3.9180699617084325E+00 
    6.2947797476788363E+00 
    6.1656040722726777E+00 
    6.2926174743619496E+00 
    4.9690850918984690E+00 
    5.1144207364639760E+00 
    5.1076761229484813E+00 
    5.4405500237466908E+00 
    5.2767852660650298E+00 
    5.2805748267649095E+00 
    9.8194875966062489E-01 
    1.1856525729438765E+00 
    1.1141543415105644E+00 
    4.0822970993288382E-01 
    5.2229900308391153E-01 
    6.0907380816325174E-01 
    5.3670620221381764E+00 
    5.4419662281899139E+00 
    5.5138832066302781E+00 
    1.0247236963359285E+00 
    9.1348786246526248E-01 
    1.0554827600269672E+00 
    2.4158166806973043E+00 
    2.5703206401168663E+00 
    2.4637698127097316E+00 
    1.6749947658916380E+00 
    1.6937309785999506E+00 
    1.8030665522072393E+00 
    7.3643560640557828E+00 
    7.4810260589517332E+00 
    7.4696014779613700E+00 
    6.5634633626730956E+00 
    6.6507675574714691E+00 
    6.6880145774632602E+00 
    9.3507167526432944E-01 
    9.1783630510200553E-01 
    1.1060233063853178E+00 
    2.7135070987435539E-01 
    2.6510817362434180E-01 
    4.4461590369428849E-01 
    4.1011213919413718E+00 
    4.2605769445266013E+00 
    4.2592183481328112E+00 
    3.8889392525325888E+00 
    3.7335701333140867E+00 
    3.7279692010561383E+00 
    7.2856617877317760E+00 
    7.1725817321823140E+00 
    7.1276480347791313E+00 
    2.2787127786268782E+00 
    2.3252090860724217E+00 
    2.1784116498174564E+00 
    1.5440121650610563E+00 
    1.4297120967753199E+00 
    1.5610288348955990E+00 
    6.2309011993063805E+00 
    6.3195106846294147E+00 
    6.3818107487503388E+00 
    5.4087991035925553E-01 
    6.7099542121892264E-01 
    7.3851774108165502E-01 
    3.7247096477322152E+00 
    3.7131836829462133E+00 
    3.8444098130409579E+00 
    6.7565685687076646E+00 
    6.7470353335029101E+00 
    6.8853697257061022E+00 
    1.2418169825331977E+00 
    1.2529404226993708E+00 
    1.1133743413468893E+00 
    5.7873228308327027E+00 
    5.9353630793108358E+00 
    5.8065115354090562E+00 
    2.2130629155961650E+00 
    2.0639895494640284E+00 
    2.1950722360502009E+00 
    4.0273201366926399E+00 
    4.1783071915178969E+00 
    4.0232632883620925E+00 
    3.9708259534404253E+00 
    3.8186858491890256E+00 
    3.9723770788056791E+00 
    6.1729953751186217E+00 
    5.9831397982014574E+00 
    6.1112735383929300E+00 
    6.9411922678784990E+00 
    6.7955768445383011E+00 
    6.8419646256196973E+00 
    4.2884946677281661E+00 
    4.4501977451878574E+00 
    4.3136938262845410E+00 
    6.9953092156488612E+00 
    7.0466861755805503E+00 
    7.1455281177388059E+00 
    4.3043686442500961E+00 
    4.1205299929674899E+00 
    4.1993035324179599E+00 
    3.9069176053927350E+00 
    4.0548430689042396E+00 
    3.9766001720709312E+00 
    3.7190082451519304E+00 
    3.5326718065447364E+00 
    3.6843463659283597E+00 
    3.5322680031638054E-01 
    5.2389175201966920E-01 
    4.9146831914572947E-01 
    9.8244564511036425E-01 
    1.1138237628451806E+00 
    1.1672370351786687E+00 
    2.5742020538580284E+00 
    2.6137402609410860E+00 
    2.4600088298278009E+00 
    6.1465542342106536E+00 
    6.3044984725453554E+00 
    6.2552352114314100E+00 
    6.5499774503709185E+00 
    6.3978012834107796E+00 
    6.4511294786212376E+00 
    5.7349188548249632E+00 
    5.6565721367589825E+00 
    5.5780953532059216E+00 
    5.3357716825812807E+00 
    5.4367235328148631E+00 
    5.5134994387316674E+00 
    4.0197704864125186E+00 
    4.2078013185261298E+00 
    4.1103495474039020E+00 
    3.3277855459405812E+00 
    3.4027145867399473E+00 
    3.2201980636103253E+00 
    6.1619817370775092E+00 
    6.0973865873790185E+00 
    5.9849252355153206E+00 
    6.4607967582937444E+00 
    6.6358282320982003E+00 
    6.5611744977170856E+00 
    6.9333185519928691E+00 
    6.9497765475720445E+00 
    6.8116534233660468E+00 
    1.7356969883654047E-01 
    3.3011044968341763E-01 
    3.1030814573997029E-01 
    6.8358107843695777E+00 
    6.7161344363289439E+00 
    6.6784937482057520E+00 
    8.9335960031965117E-02 
    2.2794494288457912E-01 
    9.5404157451758134E-02 
    7.9095335017706123E+00 
    7.7694484672329054E+00 
    7.9027818330131092E+00 
    7.8255432988596549E+00 
    7.6687881136741138E+00 
    7.6872566537521259E+00 
    1.0648323853395558E+00 
    1.0488304210752206E+00 
    1.1849944919194821E+00 
    1.1619244748687463E+00 
    1.2795354864201534E+00 
    1.3191488170093084E+00 
    1.7538446585107244E+00 
    1.5874337341107396E+00 
    1.5997570714643436E+00 
    1.2555167869052672E+00 
    1.4236337131039840E+00 
    1.4125313258757730E+00 
    3.6515875481062539E+00 
    3.5101723423658386E+00 
    3.4685522822983277E+00 
    3.1870374500918457E+00 
    3.3001165728492601E+00 
    3.3524542093908378E+00 
    2.0793322774388812E+00 
    2.2584417137845398E+00 
    2.1376017424034877E+00 
    1.9392435885847596E+00 
    1.7721011096017678E+00 
    1.8418765556781049E+00 
    1.5046707519626823E+00 
    1.6853735948068929E+00 
    1.6185677467621926E+00 
    4.3569436810504509E+00 
    4.5016565695385804E+00 
    4.5179829826177862E+00 
    6.1198097841219967E+00 
    6.0685028831394616E+00 
    6.2125385707440950E+00 
    6.6848541199878753E+00 
    6.4907111555127583E+00 
    6.6296685844069341E+00 
    5.0606550170963596E+00 
    5.1489359214533055E+00 
    5.0030480823773313E+00 
    2.9350861993010922E+00 
    2.8464721973811051E+00 
    2.9916020185616010E+00 
    2.6814469799742877E+00 
    2.5279406041517976E+00 
    2.5293344842836452E+00 
    3.5882702680029657E+00 
    3.7345184089349805E+00 
    3.7329878659159759E+00 
    3.0688309414518300E+00 
    3.0234724646084667E+00 
    3.1792364433581333E+00 
    6.2955222604715306E+00 
    6.2743725878761989E+00 
    6.1278382143219217E+00 
    6.5677951949152087E+00 
    6.7080183352795331E+00 
    6.6585151849360988E+00 
    1.7828316502949322E+00 
    1.9427467745634537E+00 
    1.9622843389152964E+00 
    7.0263875907343032E-01 
    8.6320414790152711E-01 
    8.4948207035812240E-01 
    5.9912600776748048E+00 
    5.8531430955314665E+00 
    5.9307156842196829E+00 
    2.7326409374738807E+00 
    2.6770236390753253E+00 
    2.5810633216210110E+00 
    7.2821200986989254E+00 
    7.0910828214743260E+00 
    7.1157217889277424E+00 
    3.1330300438304581E+00 
    3.1228477531788115E+00 
    3.0032192890399352E+00 
    5.4485596064445252E+00 
    5.4429232115316601E+00 
    5.2943324903407571E+00 
    2.5516061813990230E+00 
    2.5575639254586218E+00 
    2.7058221886275513E+00 
    6.8661838521459870E+00 
    6.7973154043335047E+00 
    6.9234003123111236E+00 
    1.1370866262332215E+00 
    1.1816350800349968E+00 
    1.2954196568377785E+00 
    4.6104634051379225E+00 
    4.6511918387006315E+00 
    4.5065950019392869E+00 
    1.3867102146554744E+00 
    1.3505565818661545E+00 
    1.5094796743752463E+00 
    1.6065524917135481E+00 
    1.5804664278566338E+00 
    1.4292456816355088E+00 
    5.1797983975123669E+00 
    5.3196448618740497E+00 
    5.2577364651995726E+00 
    2.8156867533491954E+00 
    2.6746715682525926E+00 
    2.7393632941638897E+00 
    5.0193049436993711E+00 
    5.1666264903308656E+00 
    5.1044586546282975E+00 
    2.9770301906955687E+00 
    2.8296224818974882E+00 
    2.8945130078327677E+00 
    5.8171469261483617E+00 
    5.9830455321190463E+00 
    5.8494350995234852E+00 
    1.7788867731072726E+00 
    1.8647088098822941E+00 
    1.9323388172406957E+00 
    2.1653199326983437E+00 
    2.0654057169708397E+00 
    2.0050678470591108E+00 
    1.4550376422245599E+00 
    1.3071875216856339E+00 
    1.3394989598714095E+00 
    1.0572095981425498E+00 
    1.2022844157723134E+00 
    1.1626203684729808E+00 
    3.3405949748368644E+00 
    3.2298482679368674E+00 
    3.4027377250338504E+00 
    7.3292567370063288E+00 
    7.3432912176260317E+00 
    7.1823238128867848E+00 
    4.8048497581443419E+00 
    4.9258968865689434E+00 
    4.9236096275567078E+00 
    2.4482074507117590E+00 
    2.3931985787509205E+00 
    2.5785618038698579E+00 
    1.1920462163943493E+00 
    1.3462835285111221E+00 
    1.3238554321975700E+00 
    2.2186796370296782E+00 
    2.3365547040965930E+00 
    2.3687069053288274E+00 
    2.5094221874960279E+00 
    2.5957286805912982E+00 
    2.4166834080687267E+00 
    2.7118046048114710E+00 
    2.7276772154191091E+00 
    2.8616736067902142E+00 
    2.9133082221223168E+00 
    2.9362837697396920E+00 
    2.7939566203324451E+00 
    1.8470370371112643E+00 
    1.6986690379434617E+00 
    1.8488492114391197E+00 
    6.0184125446292960E+00 
    6.0700254832582390E+00 
    5.9251138770400553E+00 
    3.3301575860993009E+00 
    3.4422507360414412E+00 
    3.5126928318461457E+00 
    5.3097478872868171E+00 
    5.1494073066950321E+00 
    5.2068531451688589E+00 
    6.8064715866788583E-01 
    8.3192985505457884E-01 
    8.5299331610873974E-01 
    3.7358325104709809E+00 
    3.6633032362879541E+00 
    3.5839362568320614E+00 
    4.3567084290555513E+00 
    4.2975036565165112E+00 
    4.2336054200116200E+00 
    2.5132701122471492E+00 
    2.5810385146246340E+00 
    2.4397389476419025E+00 
    5.0875768900451073E+00 
    5.0271780108871331E+00 
    4.9191607379904347E+00 
    4.7093199773318863E+00 
    4.7817567747581542E+00 
    4.8909350234875877E+00 
    7.3868979914174613E+00 
    7.3944780528452618E+00 
    7.2182743732658965E+00 
    6.0256020128563736E-01 
    7.7719981218397149E-01 
    6.1504038442649323E-01 
    4.0601321270243336E+00 
    4.1529776288950258E+00 
    4.2239514009275894E+00 
    4.4113953544382509E+00 
    4.3535498230345508E+00 
    4.2821281234616206E+00 
    6.3494424548960691E+00 
    6.2941482428247353E+00 
    6.4890266312633198E+00 
    6.4357613204558772E+00 
    6.5164725231436060E+00 
    6.3278280220629748E+00 
    5.7924929696815148E+00 
    5.6896975318436800E+00 
    5.8618456050701200E+00 
    2.2073578979912245E+00 
    2.3105260881714482E+00 
    2.1382579713208627E+00 
    4.8217482647388126E+00 
    4.9104435872942869E+00 
    4.7462190140618468E+00 
    3.1780507323166987E+00 
    3.0897895001319671E+00 
    3.2532881578332193E+00 
    4.5438318121860810E+00 
    4.4095808625504374E+00 
    4.4734113032982936E+00 
    4.7067388682585163E+00 
    4.7002145764244876E+00 
    4.8422034013423367E+00 
    6.7838738785794579E+00 
    6.8681698583067430E+00 
    6.6981618023644307E+00 
    6.6845762572346716E+00 
    6.6648837160547050E+00 
    6.8286516695370008E+00 
    3.5610013782884407E+00 
    3.3821717805760563E+00 
    3.4604106091152871E+00 
    4.4347752425879472E+00 
    4.6143241039740399E+00 
    4.5479944036178699E+00 
    2.1699476078870727E+00 
    2.3197824500521529E+00 
    2.1894520301779949E+00 
    3.2903619235445847E+00 
    3.2815024782587474E+00 
    3.1694165774729370E+00 
    5.0145928558448958E+00 
    4.9345164586996759E+00 
    5.1211057468926482E+00 
    5.1178953291450844E+00 
    5.1631302941642332E+00 
    4.9671456252839263E+00 
    5.3965671061656710E+00 
    5.2429651582544876E+00 
    5.2957677067987872E+00 
    2.6029712250346848E+00 
    2.7564848533890220E+00 
    2.7025530090155283E+00 
    5.9061564942608165E+00 
    5.8683846332398053E+00 
    6.0190690557378934E+00 
    7.4759537106019269E-01 
    7.3728925753490870E-01 
    8.6555862562697694E-01 
    6.3343634236839863E+00 
    6.4446539884914253E+00 
    6.2929130207065977E+00 
    2.3898989738686414E+00 
    2.3111631938590516E+00 
    2.2232571685265645E+00 
    6.9468700357883222E+00 
    6.7987140848684211E+00 
    6.8353003670912980E+00 
    6.3426539429840094E+00 
    6.5005369575090244E+00 
    6.3918855495333116E+00 
    1.6597604336106235E+00 
    1.5009893160508412E+00 
    1.6086109354381657E+00 
    5.4285806653600748E+00 
    5.4581206091929548E+00 
    5.5777797187078377E+00 
    2.5818971466217437E+00 
    2.5497629443056877E+00 
    2.4303339370473322E+00 
    3.4190907547132476E+00 
    3.5370024449270563E+00 
    3.3670995260744991E+00 
    4.4220259948727199E+00 
    4.5580339484173304E+00 
    4.4959847563241055E+00 
    1.6201200274476757E+00 
    1.4987995247713064E+00 
    1.4604048570166086E+00 
    2.5209830839139542E+00 
    2.3688827083074937E+00 
    2.3860990600712824E+00 
    2.6257235086875808E+00 
    2.4700307965079582E+00 
    2.5684772340327564E+00 
    6.1818677773511892E+00 
    6.1429561665121710E+00 
    6.0369155242823220E+00 
    6.5183767016281644E+00 
    6.3616817098293952E+00 
    6.5071175573481792E+00 
    6.3867080383144739E+00 
    6.5125165112305696E+00 
    6.5460047198749312E+00 
    5.4904309107994340E+00 
    5.6403007236220759E+00 
    5.6256044378208809E+00 
    1.0775348918179812E+00 
    9.9912438082698929E-01 
    1.1351722335832521E+00 
    2.4627759493592829E+00 
    2.3604774613810622E+00 
    2.3253990882842417E+00 
    5.6142817679997883E+00 
    5.6575399989819868E+00 
    5.7644704269443077E+00 
    5.8869090875826409E+00 
    5.8682440572086385E+00 
    5.7534499606543186E+00 
    2.6819705522191453E+00 
    2.7976206954138800E+00 
    2.6697659687986683E+00 
    1.2470239362904734E+00 
    1.1162868045528374E+00 
    1.2085968964894267E+00 
    6.9043459639785185E+00 
    6.9858482151695851E+00 
    7.0440728182439054E+00 
    2.1036242664034233E+00 
    1.9937131762459264E+00 
    1.9942178498420979E+00 
    1.7336857769592628E+00 
    1.8613020638661051E+00 
    1.8574813562058081E+00 
    6.6088648194941007E+00 
    6.4824204379985773E+00 
    6.5968920320875757E+00 
    1.3905175541681205E+00 
    1.5174527878731259E+00 
    1.4035910533143110E+00 
    5.6386506109385568E+00 
    5.6541110123035505E+00 
    5.5288379399333385E+00 
    2.3565237221991224E+00 
    2.3492527729371355E+00 
    2.4685225579077592E+00 
    3.6012369216073083E+00 
    3.5660594492055502E+00 
    3.4255200727356470E+00 
    4.3874004932533595E+00 
    4.4187354827033829E+00 
    4.5655170032154437E+00 
    4.7812529885684745E+00 
    4.6296194873989691E+00 
    4.6911760476282183E+00 
    9.4822301192602121E-01 
    7.9165539204254987E-01 
    8.7174192205462520E-01 
    4.5888471307900875E+00 
    4.7573860648542565E+00 
    4.6999741862172151E+00 
    3.4127691395405688E+00 
    3.2414502821554598E+00 
    3.3048801442150744E+00 
    2.4116863795925587E+00 
    2.5629780382577851E+00 
    2.4384050118798442E+00 