# vtk DataFile Version 2.0
Pressure Field Data 
ASCII 
DATASET UNSTRUCTURED_GRID 

POINTS 1089 float 

    0.0000000000000000E+00     0.0000000000000000E+00     0.0000000000000000E+00 
    1.0000000000000000E+00     0.0000000000000000E+00     0.0000000000000000E+00 
    1.0000000000000000E+00     1.0000000000000000E+00     0.0000000000000000E+00 
    0.0000000000000000E+00     1.0000000000000000E+00     0.0000000000000000E+00 
    3.1249999999940450E-02     0.0000000000000000E+00     0.0000000000000000E+00 
    6.2499999999872928E-02     0.0000000000000000E+00     0.0000000000000000E+00 
    9.3749999999823710E-02     0.0000000000000000E+00     0.0000000000000000E+00 
    1.2499999999977310E-01     0.0000000000000000E+00     0.0000000000000000E+00 
    1.5624999999968461E-01     0.0000000000000000E+00     0.0000000000000000E+00 
    1.8749999999959341E-01     0.0000000000000000E+00     0.0000000000000000E+00 
    2.1874999999950220E-01     0.0000000000000000E+00     0.0000000000000000E+00 
    2.4999999999941089E-01     0.0000000000000000E+00     0.0000000000000000E+00 
    2.8124999999931971E-01     0.0000000000000000E+00     0.0000000000000000E+00 
    3.1249999999922851E-01     0.0000000000000000E+00     0.0000000000000000E+00 
    3.4374999999913730E-01     0.0000000000000000E+00     0.0000000000000000E+00 
    3.7499999999904610E-01     0.0000000000000000E+00     0.0000000000000000E+00 
    4.0624999999895489E-01     0.0000000000000000E+00     0.0000000000000000E+00 
    4.3749999999886358E-01     0.0000000000000000E+00     0.0000000000000000E+00 
    4.6874999999877243E-01     0.0000000000000000E+00     0.0000000000000000E+00 
    4.9999999999869210E-01     0.0000000000000000E+00     0.0000000000000000E+00 
    5.3124999999876366E-01     0.0000000000000000E+00     0.0000000000000000E+00 
    5.6249999999884603E-01     0.0000000000000000E+00     0.0000000000000000E+00 
    5.9374999999892852E-01     0.0000000000000000E+00     0.0000000000000000E+00 
    6.2499999999901090E-01     0.0000000000000000E+00     0.0000000000000000E+00 
    6.5624999999909339E-01     0.0000000000000000E+00     0.0000000000000000E+00 
    6.8749999999917577E-01     0.0000000000000000E+00     0.0000000000000000E+00 
    7.1874999999925815E-01     0.0000000000000000E+00     0.0000000000000000E+00 
    7.4999999999934064E-01     0.0000000000000000E+00     0.0000000000000000E+00 
    7.8124999999942302E-01     0.0000000000000000E+00     0.0000000000000000E+00 
    8.1249999999950551E-01     0.0000000000000000E+00     0.0000000000000000E+00 
    8.4374999999958789E-01     0.0000000000000000E+00     0.0000000000000000E+00 
    8.7499999999967026E-01     0.0000000000000000E+00     0.0000000000000000E+00 
    9.0624999999975275E-01     0.0000000000000000E+00     0.0000000000000000E+00 
    9.3749999999983513E-01     0.0000000000000000E+00     0.0000000000000000E+00 
    9.6874999999991762E-01     0.0000000000000000E+00     0.0000000000000000E+00 
    1.0000000000000000E+00     3.1249999999940450E-02     0.0000000000000000E+00 
    1.0000000000000000E+00     6.2499999999872928E-02     0.0000000000000000E+00 
    1.0000000000000000E+00     9.3749999999823710E-02     0.0000000000000000E+00 
    1.0000000000000000E+00     1.2499999999977310E-01     0.0000000000000000E+00 
    1.0000000000000000E+00     1.5624999999968461E-01     0.0000000000000000E+00 
    1.0000000000000000E+00     1.8749999999959341E-01     0.0000000000000000E+00 
    1.0000000000000000E+00     2.1874999999950220E-01     0.0000000000000000E+00 
    1.0000000000000000E+00     2.4999999999941089E-01     0.0000000000000000E+00 
    1.0000000000000000E+00     2.8124999999931971E-01     0.0000000000000000E+00 
    1.0000000000000000E+00     3.1249999999922851E-01     0.0000000000000000E+00 
    1.0000000000000000E+00     3.4374999999913730E-01     0.0000000000000000E+00 
    1.0000000000000000E+00     3.7499999999904610E-01     0.0000000000000000E+00 
    1.0000000000000000E+00     4.0624999999895489E-01     0.0000000000000000E+00 
    1.0000000000000000E+00     4.3749999999886358E-01     0.0000000000000000E+00 
    1.0000000000000000E+00     4.6874999999877243E-01     0.0000000000000000E+00 
    1.0000000000000000E+00     4.9999999999869210E-01     0.0000000000000000E+00 
    1.0000000000000000E+00     5.3124999999876366E-01     0.0000000000000000E+00 
    1.0000000000000000E+00     5.6249999999884603E-01     0.0000000000000000E+00 
    1.0000000000000000E+00     5.9374999999892852E-01     0.0000000000000000E+00 
    1.0000000000000000E+00     6.2499999999901090E-01     0.0000000000000000E+00 
    1.0000000000000000E+00     6.5624999999909339E-01     0.0000000000000000E+00 
    1.0000000000000000E+00     6.8749999999917577E-01     0.0000000000000000E+00 
    1.0000000000000000E+00     7.1874999999925815E-01     0.0000000000000000E+00 
    1.0000000000000000E+00     7.4999999999934064E-01     0.0000000000000000E+00 
    1.0000000000000000E+00     7.8124999999942302E-01     0.0000000000000000E+00 
    1.0000000000000000E+00     8.1249999999950551E-01     0.0000000000000000E+00 
    1.0000000000000000E+00     8.4374999999958789E-01     0.0000000000000000E+00 
    1.0000000000000000E+00     8.7499999999967026E-01     0.0000000000000000E+00 
    1.0000000000000000E+00     9.0624999999975275E-01     0.0000000000000000E+00 
    1.0000000000000000E+00     9.3749999999983513E-01     0.0000000000000000E+00 
    1.0000000000000000E+00     9.6874999999991762E-01     0.0000000000000000E+00 
    9.6874999999986988E-01     1.0000000000000000E+00     0.0000000000000000E+00 
    9.3749999999973976E-01     1.0000000000000000E+00     0.0000000000000000E+00 
    9.0624999999960965E-01     1.0000000000000000E+00     0.0000000000000000E+00 
    8.7499999999950118E-01     1.0000000000000000E+00     0.0000000000000000E+00 
    8.4374999999969635E-01     1.0000000000000000E+00     0.0000000000000000E+00 
    8.1249999999991318E-01     1.0000000000000000E+00     0.0000000000000000E+00 
    7.8125000000013012E-01     1.0000000000000000E+00     0.0000000000000000E+00 
    7.5000000000034706E-01     1.0000000000000000E+00     0.0000000000000000E+00 
    7.1875000000056377E-01     1.0000000000000000E+00     0.0000000000000000E+00 
    6.8750000000078049E-01     1.0000000000000000E+00     0.0000000000000000E+00 
    6.5625000000099731E-01     1.0000000000000000E+00     0.0000000000000000E+00 
    6.2500000000121403E-01     1.0000000000000000E+00     0.0000000000000000E+00 
    5.9375000000143086E-01     1.0000000000000000E+00     0.0000000000000000E+00 
    5.6250000000164757E-01     1.0000000000000000E+00     0.0000000000000000E+00 
    5.3125000000186429E-01     1.0000000000000000E+00     0.0000000000000000E+00 
    5.0000000000205946E-01     1.0000000000000000E+00     0.0000000000000000E+00 
    4.6875000000195099E-01     1.0000000000000000E+00     0.0000000000000000E+00 
    4.3750000000182099E-01     1.0000000000000000E+00     0.0000000000000000E+00 
    4.0625000000169093E-01     1.0000000000000000E+00     0.0000000000000000E+00 
    3.7500000000156092E-01     1.0000000000000000E+00     0.0000000000000000E+00 
    3.4375000000143069E-01     1.0000000000000000E+00     0.0000000000000000E+00 
    3.1250000000130068E-01     1.0000000000000000E+00     0.0000000000000000E+00 
    2.8125000000117062E-01     1.0000000000000000E+00     0.0000000000000000E+00 
    2.5000000000104050E-01     1.0000000000000000E+00     0.0000000000000000E+00 
    2.1875000000091049E-01     1.0000000000000000E+00     0.0000000000000000E+00 
    1.8750000000078040E-01     1.0000000000000000E+00     0.0000000000000000E+00 
    1.5625000000065040E-01     1.0000000000000000E+00     0.0000000000000000E+00 
    1.2500000000052031E-01     1.0000000000000000E+00     0.0000000000000000E+00 
    9.3750000000390243E-02     1.0000000000000000E+00     0.0000000000000000E+00 
    6.2500000000260125E-02     1.0000000000000000E+00     0.0000000000000000E+00 
    3.1250000000130118E-02     1.0000000000000000E+00     0.0000000000000000E+00 
    0.0000000000000000E+00     9.6874999999986988E-01     0.0000000000000000E+00 
    0.0000000000000000E+00     9.3749999999973976E-01     0.0000000000000000E+00 
    0.0000000000000000E+00     9.0624999999960965E-01     0.0000000000000000E+00 
    0.0000000000000000E+00     8.7499999999950118E-01     0.0000000000000000E+00 
    0.0000000000000000E+00     8.4374999999969635E-01     0.0000000000000000E+00 
    0.0000000000000000E+00     8.1249999999991318E-01     0.0000000000000000E+00 
    0.0000000000000000E+00     7.8125000000013012E-01     0.0000000000000000E+00 
    0.0000000000000000E+00     7.5000000000034706E-01     0.0000000000000000E+00 
    0.0000000000000000E+00     7.1875000000056377E-01     0.0000000000000000E+00 
    0.0000000000000000E+00     6.8750000000078049E-01     0.0000000000000000E+00 
    0.0000000000000000E+00     6.5625000000099731E-01     0.0000000000000000E+00 
    0.0000000000000000E+00     6.2500000000121403E-01     0.0000000000000000E+00 
    0.0000000000000000E+00     5.9375000000143086E-01     0.0000000000000000E+00 
    0.0000000000000000E+00     5.6250000000164757E-01     0.0000000000000000E+00 
    0.0000000000000000E+00     5.3125000000186429E-01     0.0000000000000000E+00 
    0.0000000000000000E+00     5.0000000000205946E-01     0.0000000000000000E+00 
    0.0000000000000000E+00     4.6875000000195099E-01     0.0000000000000000E+00 
    0.0000000000000000E+00     4.3750000000182099E-01     0.0000000000000000E+00 
    0.0000000000000000E+00     4.0625000000169093E-01     0.0000000000000000E+00 
    0.0000000000000000E+00     3.7500000000156092E-01     0.0000000000000000E+00 
    0.0000000000000000E+00     3.4375000000143069E-01     0.0000000000000000E+00 
    0.0000000000000000E+00     3.1250000000130068E-01     0.0000000000000000E+00 
    0.0000000000000000E+00     2.8125000000117062E-01     0.0000000000000000E+00 
[...]
CELL_DATA 2048 
SCALARS Pressure float 1 
LOOKUP_TABLE default 

    9.8958333333335324E-01 
    9.7916666666670438E-01 
    9.8958333333335113E-01 
    9.7916666666670016E-01 
    9.8958333333334902E-01 
    9.7916666666669594E-01 
    9.8958333333334714E-01 
    9.7916666666669194E-01 
    9.8958333333334514E-01 
    9.7916666666668861E-01 
    9.8958333333334336E-01 
    9.7916666666668495E-01 
    9.8958333333334170E-01 
    9.7916666666668140E-01 
    9.8958333333333959E-01 
    9.7916666666667729E-01 
    9.8958333333333792E-01 
    9.7916666666667362E-01 
    9.8958333333333581E-01 
    9.7916666666666952E-01 
    9.8958333333333348E-01 
    9.7916666666666541E-01 
    9.8958333333333193E-01 
    9.7916666666666186E-01 
    9.8958333333333004E-01 
    9.7916666666665797E-01 
    9.8958333333332760E-01 
    9.7916666666665320E-01 
    9.8958333333332571E-01 
    9.7916666666664931E-01 
    9.8958333333332327E-01 
    9.7916666666664509E-01 
    9.8958333333332160E-01 
    9.7916666666664121E-01 
    9.8958333333331983E-01 
    9.7916666666663754E-01 
    9.8958333333331783E-01 
    9.7916666666663377E-01 
    9.8958333333331594E-01 
    9.7916666666662999E-01 
    9.8958333333331383E-01 
    9.7916666666662566E-01 
    9.8958333333331172E-01 
    9.7916666666662167E-01 
    9.8958333333330983E-01 
    9.7916666666661734E-01 
    9.8958333333330772E-01 
    9.7916666666661345E-01 
    9.8958333333330539E-01 
    9.7916666666660901E-01 
    9.8958333333330362E-01 
    9.7916666666660512E-01 
    9.8958333333330162E-01 
    9.7916666666660113E-01 
    9.8958333333329951E-01 
    9.7916666666659713E-01 
    9.8958333333329762E-01 
    9.7916666666659302E-01 
    9.8958333333329529E-01 
    9.7916666666658869E-01 
    9.8958333333329329E-01 
    9.7916666666658458E-01 
    9.8958333333329129E-01 
    9.7916666666658081E-01 
    9.5833333333341253E-01 
    9.4791666666676400E-01 
    9.5833333333340465E-01 
    9.4791666666675400E-01 
    9.5833333333339621E-01 
    9.4791666666674368E-01 
    9.5833333333338877E-01 
    9.4791666666673446E-01 
    9.5833333333338111E-01 
    9.4791666666672469E-01 
    9.5833333333337367E-01 
    9.4791666666671548E-01 
    9.5833333333336623E-01 
    9.4791666666670571E-01 
    9.5833333333335835E-01 
    9.4791666666669583E-01 
    9.5833333333335047E-01 
    9.4791666666668595E-01 
    9.5833333333334270E-01 
    9.4791666666667629E-01 
    9.5833333333333504E-01 
    9.4791666666666652E-01 
    9.5833333333332693E-01 
    9.4791666666665619E-01 
    9.5833333333331894E-01 
    9.4791666666664609E-01 
    9.5833333333331061E-01 
    9.4791666666663610E-01 
    9.5833333333330251E-01 
    9.4791666666662555E-01 
    9.5833333333329407E-01 
    9.4791666666661523E-01 
    9.5833333333328607E-01 
    9.4791666666660523E-01 
    9.5833333333327830E-01 
    9.4791666666659558E-01 
    9.5833333333327075E-01 
    9.4791666666658569E-01 
    9.5833333333326287E-01 
    9.4791666666657581E-01 
    9.5833333333325432E-01 
    9.4791666666656504E-01 
    9.5833333333324633E-01 
    9.4791666666655494E-01 
    9.5833333333323811E-01 
    9.4791666666654473E-01 
    9.5833333333322990E-01 
    9.4791666666653429E-01 
    9.5833333333322124E-01 
    9.4791666666652352E-01 
    9.5833333333321313E-01 
    9.4791666666651331E-01 
    9.5833333333320503E-01 
    9.4791666666650320E-01 
    9.5833333333319681E-01 
    9.4791666666649266E-01 
    9.5833333333318815E-01 
    9.4791666666648189E-01 
    9.5833333333318016E-01 
    9.4791666666647201E-01 
    9.5833333333317205E-01 
    9.4791666666646190E-01 
    9.5833333333316417E-01 
    9.4791666666645191E-01 
    9.2708333333347137E-01 
    9.1666666666681518E-01 
    9.2708333333345705E-01 
    9.1666666666679864E-01 
    9.2708333333344328E-01 
    9.1666666666678365E-01 
    9.2708333333343018E-01 
    9.1666666666676855E-01 
    9.2708333333341642E-01 
    9.1666666666675267E-01 
    9.2708333333340276E-01 
    9.1666666666673735E-01 
    9.2708333333338933E-01 
    9.1666666666672181E-01 
    9.2708333333337578E-01 
    9.1666666666670649E-01 
    9.2708333333336179E-01 
    9.1666666666669050E-01 
    9.2708333333334791E-01 
    9.1666666666667485E-01 
    9.2708333333333470E-01 
    9.1666666666665986E-01 
    9.2708333333332060E-01 
    9.1666666666664398E-01 
    9.2708333333330650E-01 
    9.1666666666662799E-01 
    9.2708333333329274E-01 
    9.1666666666661212E-01 
    9.2708333333327841E-01 
    9.1666666666659613E-01 
    9.2708333333326465E-01 
    9.1666666666658070E-01 
    9.2708333333325055E-01 
    9.1666666666656438E-01 
    9.2708333333323645E-01 
    9.1666666666654861E-01 
    9.2708333333322290E-01 
    9.1666666666653329E-01 
    9.2708333333320914E-01 
    9.1666666666651753E-01 
    9.2708333333319470E-01 
    9.1666666666650110E-01 
    9.2708333333318027E-01 
    9.1666666666648489E-01 
    9.2708333333316617E-01 
    9.1666666666646912E-01 
    9.2708333333315152E-01 
    9.1666666666645213E-01 
    9.2708333333313697E-01 
    9.1666666666643581E-01 
    9.2708333333312276E-01 
    9.1666666666641972E-01 
    9.2708333333310866E-01 
    9.1666666666640351E-01 
    9.2708333333309401E-01 
    9.1666666666638685E-01 
    9.2708333333307946E-01 
    9.1666666666637087E-01 
    9.2708333333306525E-01 
    9.1666666666635466E-01 
    9.2708333333305126E-01 
    9.1666666666633878E-01 
    9.2708333333303738E-01 
    9.1666666666632324E-01 
    8.9583333333351878E-01 
    8.8541666666686125E-01 
    8.9583333333349890E-01 
    8.8541666666683949E-01 
    8.9583333333347948E-01 
    8.8541666666681806E-01 
    8.9583333333346082E-01 
    8.8541666666679741E-01 
    8.9583333333344140E-01 
    8.8541666666677621E-01 
    8.9583333333342186E-01 
    8.8541666666675511E-01 
    8.9583333333340309E-01 
    8.8541666666673435E-01 
    8.9583333333338366E-01 
    8.8541666666671270E-01 
    8.9583333333336435E-01 
    8.8541666666669172E-01 
    8.9583333333334481E-01 
    8.8541666666667018E-01 
    8.9583333333332571E-01 
    8.8541666666664920E-01 
    8.9583333333330639E-01 
    8.8541666666662777E-01 
    8.9583333333328630E-01 
    8.8541666666660601E-01 
    8.9583333333326665E-01 
    8.8541666666658436E-01 
    8.9583333333324699E-01 
    8.8541666666656305E-01 
    8.9583333333322801E-01 
    8.8541666666654195E-01 
    8.9583333333320825E-01 
    8.8541666666652052E-01 
    8.9583333333318860E-01 
    8.8541666666649899E-01 
    8.9583333333316939E-01 
    8.8541666666647800E-01 
    8.9583333333315018E-01 
    8.8541666666645669E-01 
    8.9583333333313031E-01 
    8.8541666666643504E-01 
    8.9583333333311044E-01 
    8.8541666666641361E-01 
    8.9583333333309101E-01 
    8.8541666666639196E-01 
    8.9583333333307036E-01 
    8.8541666666636898E-01 
    8.9583333333304982E-01 
    8.8541666666634677E-01 
    8.9583333333302961E-01 
    8.8541666666632501E-01 
    8.9583333333300974E-01 
    8.8541666666630292E-01 
    8.9583333333298976E-01 
    8.8541666666628105E-01 
    8.9583333333296966E-01 
    8.8541666666625929E-01 
    8.9583333333294979E-01 
    8.8541666666623742E-01 
    8.9583333333292992E-01 
    8.8541666666621577E-01 
    8.9583333333291060E-01 
    8.8541666666619456E-01 
    8.6458333333357984E-01 
    8.5416666666693275E-01 
    8.6458333333355442E-01 
    8.5416666666690499E-01 
    8.6458333333352877E-01 
    8.5416666666687691E-01 
    8.6458333333350323E-01 
    8.5416666666684915E-01 
    8.6458333333347837E-01 
    8.5416666666682195E-01 
    8.6458333333345305E-01 
    8.5416666666679464E-01 
    8.6458333333342807E-01 
    8.5416666666676710E-01 
    8.6458333333340198E-01 
    8.5416666666673846E-01 
    8.6458333333337645E-01 
    8.5416666666671104E-01 
    8.6458333333335147E-01 
    8.5416666666668384E-01 
    8.6458333333332638E-01 
    8.5416666666665608E-01 
    8.6458333333330040E-01 
    8.5416666666662788E-01 
    8.6458333333327453E-01 
    8.5416666666660024E-01 
    8.6458333333324933E-01 
    8.5416666666657282E-01 
    8.6458333333322401E-01 
    8.5416666666654517E-01 
    8.6458333333319837E-01 
    8.5416666666651708E-01 
    8.6458333333317317E-01 
    8.5416666666648966E-01 
    8.6458333333314752E-01 
    8.5416666666646146E-01 
    8.6458333333312209E-01 
    8.5416666666643382E-01 
    8.6458333333309656E-01 
    8.5416666666640595E-01 
    8.6458333333307080E-01 
    8.5416666666637819E-01 
    8.6458333333304516E-01 
    8.5416666666635033E-01 
    8.6458333333301951E-01 
    8.5416666666632168E-01 
    8.6458333333299275E-01 
    8.5416666666629282E-01 
    8.6458333333296622E-01 
    8.5416666666626406E-01 
    8.6458333333293991E-01 
    8.5416666666623553E-01 
    8.6458333333291371E-01 
    8.5416666666620700E-01 
    8.6458333333288750E-01 
    8.5416666666617869E-01 
    8.6458333333286186E-01 
    8.5416666666615071E-01 
    8.6458333333283588E-01 
    8.5416666666612251E-01 
    8.6458333333281001E-01 
    8.5416666666609453E-01 
    8.6458333333278448E-01 
    8.5416666666606667E-01 
    8.3333333333366744E-01 
    8.2291666666701868E-01 
    8.3333333333363457E-01 
    8.2291666666698349E-01 
    8.3333333333360204E-01 
    8.2291666666694874E-01 
    8.3333333333356974E-01 
    8.2291666666691421E-01 
    8.3333333333353754E-01 
    8.2291666666688013E-01 
    8.3333333333350579E-01 
    8.2291666666684560E-01 
    8.3333333333347381E-01 
    8.2291666666681151E-01 
    8.3333333333344128E-01 
    8.2291666666677665E-01 
    8.3333333333340875E-01 
    8.2291666666674157E-01 
    8.3333333333337656E-01 
    8.2291666666670704E-01 
    8.3333333333334403E-01 
    8.2291666666667218E-01 
    8.3333333333331139E-01 
    8.2291666666663721E-01 
    8.3333333333327897E-01 
    8.2291666666660290E-01 
    8.3333333333324733E-01 
    8.2291666666656893E-01 
    8.3333333333321546E-01 
    8.2291666666653474E-01 
    8.3333333333318305E-01 
    8.2291666666649976E-01 
    8.3333333333315063E-01 
    8.2291666666646490E-01 
    8.3333333333311765E-01 
    8.2291666666642993E-01 
    8.3333333333308546E-01 
    8.2291666666639518E-01 
    8.3333333333305293E-01 
    8.2291666666636043E-01 
    8.3333333333302073E-01 
    8.2291666666632590E-01 
    8.3333333333298831E-01 
    8.2291666666629104E-01 
    8.3333333333295512E-01 
    8.2291666666625540E-01 
    8.3333333333292192E-01 
    8.2291666666622010E-01 
    8.3333333333288873E-01 
    8.2291666666618468E-01 
    8.3333333333285564E-01 
    8.2291666666614915E-01 
    8.3333333333282222E-01 
    8.2291666666611341E-01 
    8.3333333333278936E-01 
    8.2291666666607843E-01 
    8.3333333333275694E-01 
    8.2291666666604357E-01 
    8.3333333333272408E-01 
    8.2291666666600860E-01 
    8.3333333333269144E-01 
    8.2291666666597330E-01 
    8.3333333333265869E-01 
    8.2291666666593843E-01 
    8.0208333333375637E-01 
    7.9166666666710539E-01 
    8.0208333333371673E-01 
    7.9166666666706331E-01 
    8.0208333333367710E-01 
    7.9166666666702157E-01 
    8.0208333333363779E-01 
    7.9166666666697993E-01 
    8.0208333333359860E-01 
    7.9166666666693852E-01 
    8.0208333333355963E-01 
    7.9166666666689722E-01 
    8.0208333333352111E-01 
    7.9166666666685637E-01 
    8.0208333333348203E-01 
    7.9166666666681484E-01 
    8.0208333333344239E-01 
    7.9166666666677310E-01 
    8.0208333333340331E-01 
    7.9166666666673180E-01 
    8.0208333333336368E-01 
    7.9166666666668972E-01 
    8.0208333333332416E-01 
    7.9166666666664820E-01 
    8.0208333333328508E-01 
    7.9166666666660679E-01 
    8.0208333333324644E-01 
    7.9166666666656571E-01 
    8.0208333333320747E-01 
    7.9166666666652397E-01 
    8.0208333333316784E-01 
    7.9166666666648200E-01 
    8.0208333333312853E-01 
    7.9166666666644070E-01 
    8.0208333333308912E-01 
    7.9166666666639895E-01 
    8.0208333333304960E-01 
    7.9166666666635721E-01 
    8.0208333333301030E-01 
    7.9166666666631547E-01 
    8.0208333333297066E-01 
    7.9166666666627339E-01 
    8.0208333333293147E-01 
    7.9166666666623176E-01 
    8.0208333333289161E-01 
    7.9166666666618957E-01 
    8.0208333333285164E-01 
    7.9166666666614716E-01 
    8.0208333333281168E-01 
    7.9166666666610519E-01 
    8.0208333333277149E-01 
    7.9166666666606234E-01 
    8.0208333333273130E-01 
    7.9166666666602026E-01 
    8.0208333333269155E-01 
    7.9166666666597796E-01 
    8.0208333333265192E-01 
    7.9166666666593632E-01 
    8.0208333333261217E-01 
    7.9166666666589414E-01 
    8.0208333333257253E-01 
    7.9166666666585217E-01 
    8.0208333333253279E-01 
    7.9166666666581031E-01 
    7.7083333333384496E-01 
    7.6041666666719121E-01 
    7.7083333333379833E-01 
    7.6041666666714247E-01 
    7.7083333333375181E-01 
    7.6041666666709395E-01 
    7.7083333333370585E-01 
    7.6041666666704588E-01 
    7.7083333333365978E-01 
    7.6041666666699714E-01 
    7.7083333333361337E-01 
    7.6041666666694885E-01 
    7.7083333333356785E-01 
    7.6041666666690089E-01 
    7.7083333333352211E-01 
    7.6041666666685304E-01 
    7.7083333333347615E-01 
    7.6041666666680474E-01 
    7.7083333333343040E-01 
    7.6041666666675634E-01 
    7.7083333333338377E-01 
    7.6041666666670749E-01 
    7.7083333333333770E-01 
    7.6041666666665930E-01 
    7.7083333333329163E-01 
    7.6041666666661090E-01 
    7.7083333333324522E-01 
    7.6041666666656182E-01 
    7.7083333333319881E-01 
    7.6041666666651320E-01 
    7.7083333333315240E-01 
    7.6041666666646457E-01 
    7.7083333333310666E-01 
    7.6041666666641650E-01 
    7.7083333333306059E-01 
    7.6041666666636798E-01 
    7.7083333333301374E-01 
    7.6041666666631857E-01 
    7.7083333333296700E-01 
    7.6041666666626961E-01 
    7.7083333333292048E-01 
    7.6041666666622088E-01 
    7.7083333333287396E-01 
    7.6041666666617203E-01 
    7.7083333333282744E-01 
    7.6041666666612295E-01 
    7.7083333333278048E-01 
    7.6041666666607399E-01 
    7.7083333333273407E-01 
    7.6041666666602514E-01 
    7.7083333333268700E-01 
    7.6041666666597596E-01 
    7.7083333333264026E-01 
    7.6041666666592700E-01 
    7.7083333333259363E-01 
    7.6041666666587815E-01 
    7.7083333333254711E-01 
    7.6041666666582930E-01 
    7.7083333333250026E-01 
    7.6041666666578023E-01 
    7.7083333333245385E-01 
    7.6041666666573138E-01 
    7.7083333333240733E-01 
    7.6041666666568253E-01 
    7.3958333333393300E-01 
    7.2916666666727747E-01 
    7.3958333333387982E-01 
    7.2916666666722185E-01 
    7.3958333333382675E-01 
    7.2916666666716690E-01 
    7.3958333333377413E-01 
    7.2916666666711172E-01 
    7.3958333333372095E-01 
    7.2916666666705632E-01 
    7.3958333333366777E-01 
    7.2916666666700092E-01 
    7.3958333333361514E-01 
    7.2916666666694585E-01 
    7.3958333333356252E-01 
    7.2916666666689089E-01 
    7.3958333333350945E-01 
    7.2916666666683561E-01 
    7.3958333333345672E-01 
    7.2916666666678054E-01 
    7.3958333333340365E-01 
    7.2916666666672514E-01 
    7.3958333333335080E-01 
    7.2916666666666996E-01 
    7.3958333333329795E-01 
    7.2916666666661467E-01 
    7.3958333333324411E-01 
    7.2916666666655849E-01 
    7.3958333333319071E-01 
    7.2916666666650298E-01 
    7.3958333333313753E-01 
    7.2916666666644725E-01 
    7.3958333333308446E-01 
    7.2916666666639196E-01 
    7.3958333333303117E-01 
    7.2916666666633623E-01 
    7.3958333333297777E-01 
    7.2916666666628038E-01 
    7.3958333333292403E-01 
    7.2916666666622432E-01 
    7.3958333333287030E-01 
    7.2916666666616825E-01 
    7.3958333333281689E-01 
    7.2916666666611252E-01 
    7.3958333333276327E-01 
    7.2916666666605690E-01 
    7.3958333333271020E-01 
    7.2916666666600150E-01 
    7.3958333333265680E-01 
    7.2916666666594576E-01 
    7.3958333333260329E-01 
    7.2916666666589003E-01 
    7.3958333333254989E-01 
    7.2916666666583418E-01 
    7.3958333333249582E-01 
    7.2916666666577823E-01 
    7.3958333333244264E-01 
    7.2916666666572238E-01 
    7.3958333333238890E-01 
    7.2916666666566632E-01 
    7.3958333333233539E-01 
    7.2916666666561059E-01 
    7.3958333333228188E-01 
    7.2916666666555463E-01 
    7.0833333333402171E-01 
    6.9791666666736363E-01 
    7.0833333333396176E-01 
    6.9791666666730146E-01 
    7.0833333333390180E-01 
    6.9791666666723939E-01 
    7.0833333333384230E-01 
    6.9791666666717744E-01 
    7.0833333333378223E-01 
    6.9791666666711527E-01 
    7.0833333333372250E-01 
    6.9791666666705321E-01 
    7.0833333333366266E-01 
    6.9791666666699137E-01 
    7.0833333333360304E-01 
    6.9791666666692909E-01 
    7.0833333333354309E-01 
    6.9791666666686680E-01 
    7.0833333333348303E-01 
    6.9791666666680441E-01 
    7.0833333333342341E-01 
    6.9791666666674257E-01 
    7.0833333333336346E-01 
    6.9791666666668029E-01 
    7.0833333333330328E-01 
    6.9791666666661734E-01 
    7.0833333333324289E-01 
    6.9791666666655494E-01 
    7.0833333333318294E-01 
    6.9791666666649255E-01 
    7.0833333333312232E-01 
    6.9791666666642982E-01 
    7.0833333333306236E-01 
    6.9791666666636754E-01 
    7.0833333333300219E-01 
    6.9791666666630503E-01 
    7.0833333333294157E-01 
    6.9791666666624208E-01 
    7.0833333333288107E-01 
    6.9791666666617913E-01 
    7.0833333333282056E-01 
    6.9791666666611640E-01 
    7.0833333333275994E-01 
    6.9791666666605368E-01 
    7.0833333333269988E-01 
    6.9791666666599139E-01 
    7.0833333333264004E-01 
    6.9791666666592900E-01 
    7.0833333333257975E-01 
    6.9791666666586649E-01 
    7.0833333333251935E-01 
    6.9791666666580388E-01 
    7.0833333333245907E-01 
    6.9791666666574093E-01 
    7.0833333333239856E-01 
    6.9791666666567831E-01 
    7.0833333333233794E-01 
    6.9791666666561558E-01 
    7.0833333333227733E-01 
    6.9791666666555263E-01 
    7.0833333333221704E-01 
    6.9791666666548990E-01 
    7.0833333333215631E-01 
    6.9791666666542673E-01 
    6.7708333333411053E-01 
    6.6666666666745056E-01 
    6.7708333333404391E-01 
    6.6666666666738172E-01 
    6.7708333333397697E-01 
    6.6666666666731222E-01 
    6.7708333333391035E-01 
    6.6666666666724361E-01 
    6.7708333333384385E-01 
    6.6666666666717467E-01 
    6.7708333333377713E-01 
    6.6666666666710572E-01 
    6.7708333333371040E-01 
    6.6666666666703656E-01 
    6.7708333333364346E-01 
    6.6666666666696694E-01 
    6.7708333333357640E-01 
    6.6666666666689756E-01 
    6.7708333333350923E-01 
    6.6666666666682839E-01 
    6.7708333333344262E-01 
    6.6666666666675922E-01 
    6.7708333333337556E-01 
    6.6666666666668994E-01 
    6.7708333333330861E-01 
    6.6666666666662078E-01 
    6.7708333333324167E-01 
    6.6666666666655150E-01 
    6.7708333333317439E-01 
    6.6666666666648189E-01 
    6.7708333333310733E-01 
    6.6666666666641261E-01 
    6.7708333333304049E-01 
    6.6666666666634344E-01 
    6.7708333333297344E-01 
    6.6666666666627383E-01 
    6.7708333333290582E-01 
    6.6666666666620400E-01 
    6.7708333333283832E-01 
    6.6666666666613439E-01 
    6.7708333333277104E-01 
    6.6666666666606467E-01 
    6.7708333333270343E-01 
    6.6666666666599494E-01 
    6.7708333333263648E-01 
    6.6666666666592556E-01 
    6.7708333333256943E-01 
    6.6666666666585617E-01 
    6.7708333333250226E-01 
    6.6666666666578656E-01 
    6.7708333333243520E-01 
    6.6666666666571717E-01 
    6.7708333333236781E-01 
    6.6666666666564767E-01 
    6.7708333333230053E-01 
    6.6666666666557806E-01 
    6.7708333333223336E-01 
    6.6666666666550878E-01 
    6.7708333333216608E-01 
    6.6666666666543917E-01 
    6.7708333333209858E-01 
    6.6666666666536911E-01 
    6.7708333333203086E-01 
    6.6666666666529961E-01 
    6.4583333333419934E-01 
    6.3541666666753682E-01 
    6.4583333333412596E-01 
    6.3541666666746111E-01 
    6.4583333333405213E-01 
    6.3541666666738494E-01 
    6.4583333333397841E-01 