# vtk DataFile Version 2.0
Pressure Field Data 
ASCII 
DATASET UNSTRUCTURED_GRID 

POINTS 25 float 

    0.0000000000000000E+00     0.0000000000000000E+00     0.0000000000000000E+00 
    1.0000000000000000E+00     0.0000000000000000E+00     0.0000000000000000E+00 
    1.0000000000000000E+00     1.0000000000000000E+00     0.0000000000000000E+00 
    0.0000000000000000E+00     1.0000000000000000E+00     0.0000000000000000E+00 
    2.4999999999941089E-01     0.0000000000000000E+00     0.0000000000000000E+00 
    4.9999999999869210E-01     0.0000000000000000E+00     0.0000000000000000E+00 
    7.4999999999934064E-01     0.0000000000000000E+00     0.0000000000000000E+00 
    1.0000000000000000E+00     2.4999999999941089E-01     0.0000000000000000E+00 
    1.0000000000000000E+00     4.9999999999869210E-01     0.0000000000000000E+00 
    1.0000000000000000E+00     7.4999999999934064E-01     0.0000000000000000E+00 
    7.5000000000034706E-01     1.0000000000000000E+00     0.0000000000000000E+00 
    5.0000000000205946E-01     1.0000000000000000E+00     0.0000000000000000E+00 
    2.5000000000104050E-01     1.0000000000000000E+00     0.0000000000000000E+00 
    0.0000000000000000E+00     7.5000000000034706E-01     0.0000000000000000E+00 
    0.0000000000000000E+00     5.0000000000205946E-01     0.0000000000000000E+00 
    0.0000000000000000E+00     2.5000000000104050E-01     0.0000000000000000E+00 
    2.4999999999981831E-01     2.5000000000063310E-01     0.0000000000000000E+00 
    2.5000000000022571E-01     5.0000000000121769E-01     0.0000000000000000E+00 
    2.5000000000063322E-01     7.5000000000009537E-01     0.0000000000000000E+00 
    4.9999999999953398E-01     2.5000000000022571E-01     0.0000000000000000E+00 
    5.0000000000037581E-01     5.0000000000037581E-01     0.0000000000000000E+00 
    5.0000000000121769E-01     7.4999999999984390E-01     0.0000000000000000E+00 
    7.4999999999959222E-01     2.4999999999981831E-01     0.0000000000000000E+00 
    7.4999999999984390E-01     4.9999999999953398E-01     0.0000000000000000E+00 
    7.5000000000009526E-01     7.4999999999959210E-01     0.0000000000000000E+00 

CELLS 32 128 

3 0 4 15 
3 15 4 16 
3 15 16 14 
3 14 16 17 
3 14 17 13 
3 13 17 18 
3 13 18 3 
3 3 18 12 
3 4 5 16 
3 16 5 19 
3 16 19 17 
3 17 19 20 
3 17 20 18 
3 18 20 21 
3 18 21 12 
3 12 21 11 
3 5 6 19 
3 19 6 22 
3 19 22 20 
3 20 22 23 
3 20 23 21 
3 21 23 24 
3 21 24 11 
3 11 24 10 
3 6 1 22 
3 22 1 7 
3 22 7 23 
3 23 7 8 
3 23 8 24 
3 24 8 9 
3 24 9 10 
3 10 9 2 

CELL_TYPES 32 

5 
5 
5 
5 
5 
5 
5 
5 
5 
5 
5 
5 
5 
5 
5 
5 
5 
5 
5 
5 
5 
5 
5 
5 
5 
5 
5 
5 
5 
5 
5 
5 

CELL_DATA 32 
SCALARS Pressure float 1 
LOOKUP_TABLE default 

    1.2891828524488835E+00 
    9.4601574862100790E-01 
    7.1734480460480921E-01 
    2.0826148891196890E+00 
    2.2407733868179478E+00 
    1.4823253707850208E+00 
    2.9082893878851868E-01 
    1.5266196966109602E-01 
    2.9886503694487265E+00 
    1.8434701944366290E+00 
    9.6810000484411907E-01 
    2.2611210613328527E+00 
    1.0199730380008578E+00 
    7.4008832168738237E-01 
    4.3573981152943486E-01 
    2.7274097424701527E-01 
    3.4089763919471836E+00 
    1.9719104050728267E+00 
    7.7073907239342976E-01 
    2.0160977788056997E+00 
    8.0264836543529416E-01 
    6.6712513879580160E-01 
    3.9133339823014757E-01 
    2.6572423072786100E-01 
    2.7982318753995115E+00 
    1.0859820006896908E+00 
    2.7944139639002774E-01 
    8.5417171961996941E-01 
    9.9656308539521765E-01 
    9.8755163578677785E-01 
    4.8980168820848757E-01 
    1.7719770969637227E-01 

