# vtk DataFile Version 2.0
Pressure Field Data 
ASCII 
DATASET UNSTRUCTURED_GRID 

POINTS 1089 float 

    0.0000000000000000E+00     0.0000000000000000E+00     0.0000000000000000E+00 
    1.0000000000000000E+00     0.0000000000000000E+00     0.0000000000000000E+00 
    1.0000000000000000E+00     1.0000000000000000E+00     0.0000000000000000E+00 
    0.0000000000000000E+00     1.0000000000000000E+00     0.0000000000000000E+00 
    3.1249999999941821E-02     0.0000000000000000E+00     0.0000000000000000E+00 
    6.2499999999872928E-02     0.0000000000000000E+00     0.0000000000000000E+00 
    9.3749999999823030E-02     0.0000000000000000E+00     0.0000000000000000E+00 
    1.2499999999977310E-01     0.0000000000000000E+00     0.0000000000000000E+00 
    1.5624999999968331E-01     0.0000000000000000E+00     0.0000000000000000E+00 
    1.8749999999959341E-01     0.0000000000000000E+00     0.0000000000000000E+00 
    2.1874999999950220E-01     0.0000000000000000E+00     0.0000000000000000E+00 
    2.4999999999941089E-01     0.0000000000000000E+00     0.0000000000000000E+00 
    2.8124999999931971E-01     0.0000000000000000E+00     0.0000000000000000E+00 
    3.1249999999922851E-01     0.0000000000000000E+00     0.0000000000000000E+00 
    3.4374999999913730E-01     0.0000000000000000E+00     0.0000000000000000E+00 
    3.7499999999904610E-01     0.0000000000000000E+00     0.0000000000000000E+00 
    4.0624999999895478E-01     0.0000000000000000E+00     0.0000000000000000E+00 
    4.3749999999886358E-01     0.0000000000000000E+00     0.0000000000000000E+00 
    4.6874999999877792E-01     0.0000000000000000E+00     0.0000000000000000E+00 
    4.9999999999869210E-01     0.0000000000000000E+00     0.0000000000000000E+00 
    5.3124999999876910E-01     0.0000000000000000E+00     0.0000000000000000E+00 
    5.6249999999884603E-01     0.0000000000000000E+00     0.0000000000000000E+00 
    5.9374999999892841E-01     0.0000000000000000E+00     0.0000000000000000E+00 
    6.2499999999901090E-01     0.0000000000000000E+00     0.0000000000000000E+00 
    6.5624999999909328E-01     0.0000000000000000E+00     0.0000000000000000E+00 
    6.8749999999917577E-01     0.0000000000000000E+00     0.0000000000000000E+00 
    7.1874999999925815E-01     0.0000000000000000E+00     0.0000000000000000E+00 
    7.4999999999934064E-01     0.0000000000000000E+00     0.0000000000000000E+00 
    7.8124999999942302E-01     0.0000000000000000E+00     0.0000000000000000E+00 
    8.1249999999950551E-01     0.0000000000000000E+00     0.0000000000000000E+00 
    8.4374999999958789E-01     0.0000000000000000E+00     0.0000000000000000E+00 
    8.7499999999967026E-01     0.0000000000000000E+00     0.0000000000000000E+00 
    9.0624999999975264E-01     0.0000000000000000E+00     0.0000000000000000E+00 
    9.3749999999983513E-01     0.0000000000000000E+00     0.0000000000000000E+00 
    9.6874999999991751E-01     0.0000000000000000E+00     0.0000000000000000E+00 
    1.0000000000000000E+00     3.1249999999941821E-02     0.0000000000000000E+00 
    1.0000000000000000E+00     6.2499999999872928E-02     0.0000000000000000E+00 
    1.0000000000000000E+00     9.3749999999823030E-02     0.0000000000000000E+00 
    1.0000000000000000E+00     1.2499999999977310E-01     0.0000000000000000E+00 
    1.0000000000000000E+00     1.5624999999968331E-01     0.0000000000000000E+00 
    1.0000000000000000E+00     1.8749999999959341E-01     0.0000000000000000E+00 
    1.0000000000000000E+00     2.1874999999950220E-01     0.0000000000000000E+00 
    1.0000000000000000E+00     2.4999999999941089E-01     0.0000000000000000E+00 
    1.0000000000000000E+00     2.8124999999931971E-01     0.0000000000000000E+00 
    1.0000000000000000E+00     3.1249999999922851E-01     0.0000000000000000E+00 
    1.0000000000000000E+00     3.4374999999913730E-01     0.0000000000000000E+00 
    1.0000000000000000E+00     3.7499999999904610E-01     0.0000000000000000E+00 
    1.0000000000000000E+00     4.0624999999895478E-01     0.0000000000000000E+00 
    1.0000000000000000E+00     4.3749999999886358E-01     0.0000000000000000E+00 
    1.0000000000000000E+00     4.6874999999877792E-01     0.0000000000000000E+00 
    1.0000000000000000E+00     4.9999999999869210E-01     0.0000000000000000E+00 
    1.0000000000000000E+00     5.3124999999876910E-01     0.0000000000000000E+00 
    1.0000000000000000E+00     5.6249999999884603E-01     0.0000000000000000E+00 
    1.0000000000000000E+00     5.9374999999892841E-01     0.0000000000000000E+00 
    1.0000000000000000E+00     6.2499999999901090E-01     0.0000000000000000E+00 
    1.0000000000000000E+00     6.5624999999909328E-01     0.0000000000000000E+00 
    1.0000000000000000E+00     6.8749999999917577E-01     0.0000000000000000E+00 
    1.0000000000000000E+00     7.1874999999925815E-01     0.0000000000000000E+00 
    1.0000000000000000E+00     7.4999999999934064E-01     0.0000000000000000E+00 
    1.0000000000000000E+00     7.8124999999942302E-01     0.0000000000000000E+00 
    1.0000000000000000E+00     8.1249999999950551E-01     0.0000000000000000E+00 
    1.0000000000000000E+00     8.4374999999958789E-01     0.0000000000000000E+00 
    1.0000000000000000E+00     8.7499999999967026E-01     0.0000000000000000E+00 
    1.0000000000000000E+00     9.0624999999975264E-01     0.0000000000000000E+00 
    1.0000000000000000E+00     9.3749999999983513E-01     0.0000000000000000E+00 
    1.0000000000000000E+00     9.6874999999991751E-01     0.0000000000000000E+00 
    9.6874999999986700E-01     1.0000000000000000E+00     0.0000000000000000E+00 
    9.3749999999973976E-01     1.0000000000000000E+00     0.0000000000000000E+00 
    9.0624999999967670E-01     1.0000000000000000E+00     0.0000000000000000E+00 
    8.7499999999950118E-01     1.0000000000000000E+00     0.0000000000000000E+00 
    8.4374999999971556E-01     1.0000000000000000E+00     0.0000000000000000E+00 
    8.1249999999991318E-01     1.0000000000000000E+00     0.0000000000000000E+00 
    7.8125000000010270E-01     1.0000000000000000E+00     0.0000000000000000E+00 
    7.5000000000034706E-01     1.0000000000000000E+00     0.0000000000000000E+00 
    7.1875000000056688E-01     1.0000000000000000E+00     0.0000000000000000E+00 
    6.8750000000078049E-01     1.0000000000000000E+00     0.0000000000000000E+00 
    6.5625000000097422E-01     1.0000000000000000E+00     0.0000000000000000E+00 
    6.2500000000121403E-01     1.0000000000000000E+00     0.0000000000000000E+00 
    5.9375000000151579E-01     1.0000000000000000E+00     0.0000000000000000E+00 
    5.6250000000164757E-01     1.0000000000000000E+00     0.0000000000000000E+00 
    5.3125000000182365E-01     1.0000000000000000E+00     0.0000000000000000E+00 
    5.0000000000205946E-01     1.0000000000000000E+00     0.0000000000000000E+00 
    4.6875000000194023E-01     1.0000000000000000E+00     0.0000000000000000E+00 
    4.3750000000182099E-01     1.0000000000000000E+00     0.0000000000000000E+00 
    4.0625000000169093E-01     1.0000000000000000E+00     0.0000000000000000E+00 
    3.7500000000156092E-01     1.0000000000000000E+00     0.0000000000000000E+00 
    3.4375000000143069E-01     1.0000000000000000E+00     0.0000000000000000E+00 
    3.1250000000130068E-01     1.0000000000000000E+00     0.0000000000000000E+00 
    2.8125000000117062E-01     1.0000000000000000E+00     0.0000000000000000E+00 
    2.5000000000104050E-01     1.0000000000000000E+00     0.0000000000000000E+00 
    2.1875000000091041E-01     1.0000000000000000E+00     0.0000000000000000E+00 
    1.8750000000078040E-01     1.0000000000000000E+00     0.0000000000000000E+00 
    1.5625000000065031E-01     1.0000000000000000E+00     0.0000000000000000E+00 
    1.2500000000052031E-01     1.0000000000000000E+00     0.0000000000000000E+00 
    9.3750000000390132E-02     1.0000000000000000E+00     0.0000000000000000E+00 
    6.2500000000260125E-02     1.0000000000000000E+00     0.0000000000000000E+00 
    3.1250000000130007E-02     1.0000000000000000E+00     0.0000000000000000E+00 
    0.0000000000000000E+00     9.6874999999986700E-01     0.0000000000000000E+00 
    0.0000000000000000E+00     9.3749999999973976E-01     0.0000000000000000E+00 
    0.0000000000000000E+00     9.0624999999967670E-01     0.0000000000000000E+00 
    0.0000000000000000E+00     8.7499999999950118E-01     0.0000000000000000E+00 
    0.0000000000000000E+00     8.4374999999971556E-01     0.0000000000000000E+00 
    0.0000000000000000E+00     8.1249999999991318E-01     0.0000000000000000E+00 
    0.0000000000000000E+00     7.8125000000010270E-01     0.0000000000000000E+00 
    0.0000000000000000E+00     7.5000000000034706E-01     0.0000000000000000E+00 
    0.0000000000000000E+00     7.1875000000056688E-01     0.0000000000000000E+00 
    0.0000000000000000E+00     6.8750000000078049E-01     0.0000000000000000E+00 
    0.0000000000000000E+00     6.5625000000097422E-01     0.0000000000000000E+00 
    0.0000000000000000E+00     6.2500000000121403E-01     0.0000000000000000E+00 
    0.0000000000000000E+00     5.9375000000151579E-01     0.0000000000000000E+00 
    0.0000000000000000E+00     5.6250000000164757E-01     0.0000000000000000E+00 
    0.0000000000000000E+00     5.3125000000182365E-01     0.0000000000000000E+00 
    0.0000000000000000E+00     5.0000000000205946E-01     0.0000000000000000E+00 
    0.0000000000000000E+00     4.6875000000194023E-01     0.0000000000000000E+00 
    0.0000000000000000E+00     4.3750000000182099E-01     0.0000000000000000E+00 
    0.0000000000000000E+00     4.0625000000169093E-01     0.0000000000000000E+00 
    0.0000000000000000E+00     3.7500000000156092E-01     0.0000000000000000E+00 
    0.0000000000000000E+00     3.4375000000143069E-01     0.0000000000000000E+00 
    0.0000000000000000E+00     3.1250000000130068E-01     0.0000000000000000E+00 
    0.0000000000000000E+00     2.8125000000117062E-01     0.0000000000000000E+00 
[...]
CELL_DATA 1024 
SCALARS Pressure float 1 
LOOKUP_TABLE default 

   -2.7358541670042353E-04 
   -8.1864183481276205E-04 
   -8.1843676799880536E-04 
   -2.7297497013010157E-04 
   -2.7280665427100570E-04 
   -8.1830148497044272E-04 
   -8.1822792205011338E-04 
   -2.7275293237118343E-04 
   -2.7273223997227017E-04 
   -8.1818787297103515E-04 
   -8.1816462153000338E-04 
   -2.7272248677957984E-04 
   -2.7271696649931439E-04 
   -8.1814987732595776E-04 
   -8.1813961039940339E-04 
   -2.7271333852505321E-04 
   -2.7271065584738992E-04 
   -8.1813179732677366E-04 
   -8.1812536760656157E-04 
   -2.7270847961198465E-04 
   -2.7270658229025275E-04 
   -8.1811972127135359E-04 
   -8.1811450247673177E-04 
   -2.7270483492132703E-04 
   -2.7270315889425139E-04 
   -8.1810948839326043E-04 
   -8.1810453171983401E-04 
   -2.7270150307413511E-04 
   -2.7269983192702797E-04 
   -8.1809952917967076E-04 
   -8.1809440308923506E-04 
   -2.7269811880036227E-04 
   -2.7269634171992612E-04 
   -8.1808908961900789E-04 
   -8.1808353032185180E-04 
   -2.7269448036506351E-04 
   -2.7269251341382919E-04 
   -8.1807766480940919E-04 
   -8.1807142288268381E-04 
   -2.7269041560097884E-04 
   -2.7268815370431484E-04 
   -8.1806471420705588E-04 
   -8.1805741264196277E-04 
   -2.7268568018085152E-04 
   -2.7268292194269347E-04 
   -8.1804933001355376E-04 
   -8.1804016897801574E-04 
   -2.7267975871655959E-04 
   -2.7267597734028200E-04 
   -8.1802943307580066E-04 
   -8.1801624539936865E-04 
   -2.7267116470598170E-04 
   -2.7266442569806571E-04 
   -8.1799896454869266E-04 
   -8.1797434093086282E-04 
   -2.7265354189105523E-04 
   -2.7263214992851755E-04 
   -8.1793564814817510E-04 
   -8.1786878152180097E-04 
   -2.7257929283514682E-04 
   -2.7241765617417614E-04 
   -8.1774611071982236E-04 
   -8.1753043036076126E-04 
   -2.7183708073167160E-04 
   -1.3638895469182863E-03 
   -1.9092142835010759E-03 
   -1.9091810912572444E-03 
   -1.3638121739887809E-03 
   -1.3637306371716662E-03 
   -1.9091338359703612E-03 
   -1.9090893869477996E-03 
   -1.3636694915095614E-03 
   -1.3636276087546119E-03 
   -1.9090530522485412E-03 
   -1.9090246396371877E-03 
   -1.3635990381351442E-03 
   -1.3635788240874342E-03 
   -1.9090023544918566E-03 
   -1.9089843679499648E-03 
   -1.3635636973269051E-03 
   -1.3635516424213652E-03 
   -1.9089692428841572E-03 
   -1.9089559477431196E-03 
   -1.3635414303412260E-03 
   -1.3635323007226586E-03 
   -1.9089437653810062E-03 
   -1.9089321992631252E-03 
   -1.3635237703742678E-03 
   -1.3635155216741243E-03 
   -1.9089209014278674E-03 
   -1.9089096221249653E-03 
   -1.3635073373358645E-03 
   -1.3634990613722849E-03 
   -1.9088981755925937E-03 
   -1.9088864166122842E-03 
   -1.3634905747541546E-03 
   -1.3634817792053664E-03 
   -1.9088742237874010E-03 
   -1.9088614866423757E-03 
   -1.3634725852301141E-03 
   -1.3634629017900655E-03 
   -1.9088480943763972E-03 
   -1.9088339244367001E-03 
   -1.3634526255444188E-03 
   -1.3634416274242343E-03 
   -1.9088188290355300E-03 
   -1.9088026173101308E-03 
   -1.3634297334755177E-03 
   -1.3634166950405994E-03 
   -1.9087850299754293E-03 
   -1.9087657020455152E-03 
   -1.3634021397298070E-03 
   -1.3633854879750089E-03 
   -1.9087441078608337E-03 
   -1.9087194829532467E-03 
   -1.3633658084890687E-03 
   -1.3633415693867900E-03 
   -1.9086907251416431E-03 
   -1.9086563105973179E-03 
   -1.3633102316055990E-03 
   -1.3632676941607938E-03 
   -1.9086143676271719E-03 
   -1.9085633421424700E-03 
   -1.3632080151270993E-03 
   -1.3631255849034700E-03 
   -1.9085043398994477E-03 
   -1.9084471343469597E-03 
   -1.3630279279259760E-03 
   -2.4545740302202722E-03 
   -2.9999514728517081E-03 
   -2.9999423756627663E-03 
   -2.4545577661786002E-03 
   -2.4545294482399586E-03 
   -2.9999242647980890E-03 
   -2.9999016678230019E-03 
   -2.4544980580583609E-03 
   -2.4544685894787540E-03 
   -2.9998780497284077E-03 
   -2.9998552952973049E-03 
   -2.4544427493261209E-03 
   -2.4544205200277649E-03 
   -2.9998340970292000E-03 
   -2.9998144717358595E-03 
   -2.4544012348689990E-03 
   -2.4543841101419949E-03 
   -2.9997961343891438E-03 
   -2.9997787096813469E-03 
   -2.4543684501289430E-03 
   -2.4543536979128792E-03 
   -2.9997618318718710E-03 
   -2.9997451821720078E-03 
   -2.4543394264294016E-03 
   -2.4543253124273746E-03 
   -2.9997284958400367E-03 
   -2.9997115565944428E-03 
   -2.4543111097575549E-03 
   -2.4542966269054268E-03 
   -2.9996941868729978E-03 
   -2.9996762375714388E-03 
   -2.4542817092434348E-03 
   -2.4542662250344629E-03 
   -2.9996575784945294E-03 
   -2.9996380896628108E-03 
   -2.4542500539037971E-03 
   -2.4542330765223771E-03 
   -2.9996176531640112E-03 
   -2.9995961450793129E-03 
   -2.4542151643092780E-03 
   -2.4541961679653283E-03 
   -2.9995734270093590E-03 
   -2.9995493368630793E-03 
   -2.4541759035907372E-03 
   -2.4541541351225534E-03 
   -2.9995236789745108E-03 
   -2.9994962145889169E-03 
   -2.4541305521642224E-03 
   -2.4541047437938424E-03 
   -2.9994666559551527E-03 
   -2.9994346718806349E-03 
   -2.4540761736420616E-03 
   -2.4540441739783203E-03 
   -2.9993999215987372E-03 
   -2.9993621494230978E-03 
   -2.4540080059647475E-03 
   -2.4539670946968971E-03 
   -2.9993213944290169E-03 
   -2.9992783830158007E-03 
   -2.4539216520158137E-03 
   -2.4538739934386127E-03 
   -2.9992351197527622E-03 
   -2.9991954158729013E-03 
   -2.4538305923956266E-03 
   -3.5453386057208627E-03 
   -4.0907313040847108E-03 
   -4.0907271329517821E-03 
   -3.5453328141433495E-03 
   -3.5453202660131618E-03 
   -4.0907176708062454E-03 
   -4.0907041171765676E-03 
   -3.5453032565955036E-03 
   -3.5452839734887568E-03 
   -4.0906878154431210E-03 
   -4.0906698793532845E-03 
   -3.5452639460967867E-03 
   -3.5452440129128638E-03 
   -4.0906510628873922E-03 
   -4.0906317867940882E-03 
   -3.5452245023511438E-03 
   -3.5452054349349280E-03 
   -4.0906122254496151E-03 
   -4.0905923963298835E-03 
   -3.5451866753946661E-03 
   -3.5451680271583541E-03 
   -4.0905722294084946E-03 
   -4.0905516133160555E-03 
   -3.5451492833228288E-03 
   -3.5451302501908551E-03 
   -4.0905304227079192E-03 
   -4.0905085326842072E-03 
   -3.5451107553942283E-03 
   -3.5450906481414935E-03 
   -4.0904858251232688E-03 
   -4.0904621903170109E-03 
   -3.5450697958260714E-03 
   -3.5450480791614719E-03 
   -4.0904375260426007E-03 
   -4.0904117353302346E-03 
   -3.5450253868341795E-03 
   -3.5450016100524221E-03 
   -4.0903847236529352E-03 
   -4.0903563959977240E-03 
   -3.5449766371014198E-03 
   -3.5449503479822795E-03 
   -4.0903266542254178E-03 
   -4.0902953952782475E-03 
   -3.5449226093976780E-03 
   -3.5448932708323443E-03 
   -4.0902625111860370E-03 
   -4.0902278925277072E-03 
   -3.5448621634512319E-03 
   -3.5448291053278647E-03 
   -4.0901914381131907E-03 
   -4.0901530751662613E-03 
   -3.5447939195543537E-03 
   -3.5447564763816382E-03 
   -4.0901127958829020E-03 
   -4.0900707166881128E-03 
   -3.5447167760225039E-03 
   -3.5446750911426934E-03 
   -4.0900271626732685E-03 
   -4.0899827652663969E-03 
   -3.5446321750705256E-03 
   -3.5445894854447451E-03 
   -4.0899385271945966E-03 
   -4.0898957524257368E-03 
   -3.5445492310486764E-03 
   -4.6361272267500028E-03 
   -5.1815249279423816E-03 
   -5.1815219682815397E-03 
   -4.6361238703033188E-03 
   -4.6361161340635988E-03 
   -5.1815151805252513E-03 
   -5.1815049374659443E-03 
   -4.6361046713360434E-03 
   -4.6360903089450387E-03 
   -5.1814917574059816E-03 
   -5.1814761762656002E-03 
   -4.6360738240085299E-03 
   -4.6360558228741508E-03 
   -5.1814586583495831E-03 
   -5.1814395557963763E-03 
   -4.6360367122542639E-03 
   -4.6360167238778489E-03 
   -5.1814191050600254E-03 
   -5.1813974436484347E-03 
   -4.6359959585868943E-03 
   -4.6359744298314822E-03 
   -5.1813746338176068E-03 
   -5.1813506854106748E-03 
   -4.6359520982711001E-03 
   -4.6359288960373867E-03 
   -5.1813255744534610E-03 
   -5.1812992567985263E-03 
   -4.6359047421962269E-03 
   -4.6358795517243536E-03 
   -5.1812716773885084E-03 
   -5.1812427761324231E-03 
   -4.6358532401137298E-03 
   -4.6358257252214746E-03 
   -5.1812124913891405E-03 
   -5.1811807618993878E-03 
   -4.6357969275048700E-03 
   -4.6357667694302308E-03 
   -5.1811475278419434E-03 
   -5.1811127315752473E-03 
   -4.6357351746442073E-03 
   -4.6357020674440185E-03 
   -5.1810763185877089E-03 
   -5.1810382392252358E-03 
   -4.6356673731778007E-03 
   -4.6356310204547311E-03 
   -5.1809984518884807E-03 
   -5.1809569285704224E-03 
   -4.6355929464516974E-03 
   -4.6355531071366890E-03 
   -5.1809136637691079E-03 
   -5.1808686878028450E-03 
   -4.6355114947405351E-03 
   -4.6354681648794263E-03 
   -5.1808220850623442E-03 
   -5.1807740162263007E-03 
   -4.6354232744288820E-03 
   -4.6353771268738990E-03 
   -5.1807247402360637E-03 
   -5.1806746263682269E-03 
   -4.6353302120768691E-03 
   -4.6352832109289813E-03 
   -5.1806241399181751E-03 
   -5.1805737813388972E-03 
   -4.6352369174248653E-03 
   -5.7269234475029289E-03 
   -6.2723221067970064E-03 
   -6.2723193362345074E-03 
   -5.7269206517272225E-03 
   -5.7269143480741342E-03 
   -6.2723132262660691E-03 
   -6.2723039198411146E-03 
   -5.7269047605269614E-03 
   -5.7268922235305187E-03 
   -6.2722916413181385E-03 
   -6.2722766542738281E-03 
   -5.7268771091272376E-03 
   -5.7268597665067660E-03 
   -6.2722592217364223E-03 
   -6.2722395775865756E-03 
   -5.7268404855373217E-03 
   -5.7268194831872257E-03 
   -6.2722179112638396E-03 
   -6.2721943636131093E-03 
   -5.7267969058817552E-03 
   -5.7267728402595275E-03 
   -6.2721690301061096E-03 
   -6.2721419678713648E-03 
   -5.7267473266684821E-03 
   -5.7267203720538897E-03 
   -6.2721132039288228E-03 
   -6.2720827430709702E-03 
   -5.7266919607204510E-03 
   -5.7266620626014678E-03 
   -6.2720505746559135E-03 
   -6.2720166781162438E-03 
   -5.7266306392642968E-03 
   -5.7265976481199977E-03 
   -6.2719810272888303E-03 
   -6.2719435938127285E-03 
   -5.7265630453543839E-03 
   -5.7265267880693485E-03 
   -6.2719043498938387E-03 
   -6.2718632707446905E-03 
   -5.7264888360832166E-03 
   -5.7264491538198369E-03 
   -6.2718203370047557E-03 
   -6.2717755374427399E-03 
   -5.7264077127294260E-03 
   -5.7263644947234214E-03 
   -6.2717288722340756E-03 
   -6.2716803570729675E-03 
   -5.7263194971429966E-03 
   -5.7262727397534487E-03 
   -6.2716300282765472E-03 
   -6.2715779487999080E-03 
   -5.7262242740488767E-03 
   -5.7261741945778509E-03 
   -6.2715242146144578E-03 
   -6.2714689601243989E-03 
   -5.7261226508181547E-03 
   -5.7260698561364893E-03 
   -6.2714123602103777E-03 
   -6.2713546253431972E-03 
   -5.7260160876950860E-03 
   -5.7259616688334616E-03 
   -6.2712959857159911E-03 
   -6.2712366618037701E-03 
   -5.7259069260994057E-03 
   -6.8177204002893930E-03 
   -7.3631179349052797E-03 
   -7.3631149778029389E-03 
   -6.8177175667053103E-03 
   -6.8177114596844847E-03 
   -7.3631087412673532E-03 
   -7.3630993002182640E-03 
   -6.8177021776936811E-03 
   -6.8176898791770723E-03 
   -7.3630867744684525E-03 
   -7.3630713125541454E-03 
   -6.8176747572377041E-03 
   -6.8176570134247825E-03 
   -7.3630530739508659E-03 
   -7.3630322133892579E-03 
   -6.8176368364481635E-03 
   -6.8176143883954881E-03 
   -7.3630088694240864E-03 
   -7.3629831578046505E-03 
   -6.8175897983131150E-03 
   -6.8175631615168750E-03 
   -7.3629551690782159E-03 
   -7.3629249693365154E-03 
   -6.8175345425907511E-03 
   -6.8175039802799483E-03 
   -7.3628926029511484E-03 
   -7.3628580963353493E-03 
   -6.8174714929892704E-03 
   -6.8174370841069505E-03 
   -7.3628214620507192E-03 
   -7.3627827028466767E-03 
   -6.8174007467768638E-03 
   -6.8173624680143161E-03 
   -7.3627418154323171E-03 
   -7.3626987939258599E-03 
   -6.8173222322232396E-03 
   -6.8172800242565336E-03 
   -7.3626536330129244E-03 
   -7.3626063308860632E-03 
   -6.8172358321962577E-03 
   -6.8171896500364001E-03 
   -7.3625568920449823E-03 
   -7.3625053300179254E-03 
   -6.8171414804383372E-03 
   -6.8170913376977916E-03 
   -7.3624516700222867E-03 
   -7.3623959515144366E-03 
   -6.8170392510008004E-03 
   -6.8169852679327561E-03 
   -7.3623382304783529E-03 
   -7.3622785811629310E-03 
   -6.8169294580062946E-03 
   -6.8168719156580706E-03 
   -7.3622170967969601E-03 
   -7.3621538886058024E-03 
   -6.8168127617200354E-03 
   -6.8167521418579062E-03 
   -7.3620890822835806E-03 
   -7.3620228110617934E-03 
   -6.8166902200883107E-03 
   -6.8166271656419164E-03 
   -7.3619552048541032E-03 
   -7.3618863758578464E-03 
   -6.8165631327039020E-03 
   -7.9085143948971915E-03 
   -8.4539095212621297E-03 
   -8.4539061880088660E-03 
   -7.9085112688256024E-03 
   -7.9085048042687681E-03 
   -8.4538994155612772E-03 
   -8.4538892672166022E-03 
   -7.9084950656736087E-03 
   -7.9084821520206197E-03 
   -8.4538758338304053E-03 
   -8.4538592243774864E-03 
   -7.9084661853776328E-03 
   -7.9084472980876820E-03 
   -8.4538395557815279E-03 
   -8.4538169435898168E-03 
   -7.9084256209667574E-03 
   -7.9084012740984443E-03 
   -8.4537914945742726E-03 
   -8.4537633017447121E-03 
   -7.9083743608679598E-03 
   -7.9083449651143264E-03 
   -8.4537324417535975E-03 
   -8.4536989743441097E-03 
   -7.9083131508289814E-03 
   -7.9082789636711424E-03 
   -8.4536629433493767E-03 
   -8.4536243787470978E-03 
   -7.9082424336122184E-03 
   -7.9082035781652422E-03 
   -8.4535832993524861E-03 
   -8.4535397158428983E-03 
   -7.9081624058250106E-03 
   -7.9081189194978047E-03 
   -8.4534936339163425E-03 
   -8.4534450574727544E-03 
   -7.9080731198144689E-03 
   -7.9080250082939497E-03 
   -8.4533939917620388E-03 
   -8.4533404464661958E-03 
   -7.9079745903597991E-03 
   -7.9079218782129434E-03 
   -8.4532844386738058E-03 
   -8.4532259956647798E-03 
   -7.9078668935369800E-03 
   -7.9078096699607067E-03 
   -8.4531651573586681E-03 
   -8.4531019781975986E-03 
   -7.9077502551314193E-03 
   -7.9076887121663584E-03 
   -8.4530365281490841E-03 
   -8.4529688924478916E-03 
   -7.9076251201590422E-03 
   -7.9075595733380244E-03 
   -8.4528991696811526E-03 
   -8.4528274678934770E-03 
   -7.9074921784356433E-03 
   -7.9074230498659935E-03 
   -8.4527538985829497E-03 
   -8.4526785687873193E-03 
   -7.9073523024926762E-03 
   -7.9072800421490091E-03 
   -8.4526015718968256E-03 
   -8.4525229782977350E-03 
   -7.9072063546886343E-03 
   -8.9993031001332109E-03 
   -9.5446949573339199E-03 
   -9.5446910972551181E-03 
   -8.9992995232117366E-03 
   -8.9992923709325771E-03 
   -9.5446834923996471E-03 
   -9.5446722283439138E-03 
   -8.9992817134659942E-03 
   -8.9992676439386507E-03 
   -9.5446574105872463E-03 
   -9.5446391536189081E-03 
   -8.9992502690863698E-03 
   -8.9992297000755055E-03 
   -9.5446175714535061E-03 
   -9.5445927704126687E-03 
   -8.9992060445977743E-03 
   -8.9991794008758945E-03 
   -9.5445648443162334E-03 
   -9.5445338718635371E-03 
   -8.9991498537796873E-03 
   -8.9991174729231339E-03 
   -9.5444999158041839E-03 
   -9.5444630234558358E-03 
   -8.9990823124189295E-03 
   -8.9990444118937807E-03 
   -9.5444232281663259E-03 
   -9.5443805513965099E-03 
   -8.9990037983827750E-03 
   -8.9989604887876062E-03 
   -9.5443350051906978E-03 
   -9.5442865948880389E-03 
   -8.9989144926690291E-03 
   -8.9988658152263014E-03 
   -9.5442353219990297E-03 
   -9.5441811872231958E-03 
   -8.9988144603821273E-03 
   -8.9987604339301277E-03 
   -9.5441241936109217E-03 
   -9.5440643498712497E-03 
   -8.9987037467118818E-03 
   -8.9986444177687190E-03 
   -9.5440016737929814E-03 
   -9.5439361956728818E-03 
   -8.9985824773567320E-03 
   -8.9985179696273499E-03 
   -9.5438679615297544E-03 
   -9.5437970357311590E-03 
   -8.9984509546678620E-03 
   -8.9983815094855819E-03 
   -9.5437235024897794E-03 
   -9.5436474655437552E-03 
   -8.9983097274411641E-03 
   -8.9982357156405228E-03 
   -9.5435690452935762E-03 
   -9.5434883728262049E-03 
   -8.9981595899382132E-03 
   -8.9980814675321985E-03 
   -9.5434055807066404E-03 
   -9.5433207911795413E-03 
   -8.9980014576356813E-03 
   -8.9979196513055634E-03 
   -9.5432341033652602E-03 
   -9.5431455818216250E-03 
   -8.9978361120017034E-03 
   -1.0090084957905782E-02 
   -1.0635473010572553E-02 
   -1.0635468426790161E-02 
   -1.0090080767104010E-02 
   -1.0090072627458846E-02 
   -1.0635459650238210E-02 
   -1.0635446834653464E-02 
   -1.0090060650815245E-02 
   -1.0090044966667497E-02 
   -1.0635430148739217E-02 
   -1.0635409755939632E-02 
   -1.0090025707784899E-02 
   -1.0090002999378804E-02 
   -1.0635385801333217E-02 
   -1.0635358405175332E-02 
   -1.0089976952190565E-02 
   -1.0089947658980539E-02 
   -1.0635327661357098E-02 
   -1.0635293638892757E-02 
   -1.0089915193559170E-02 
   -1.0089879611514221E-02 
   -1.0635256384928970E-02 
   -1.0635215928282638E-02 
   -1.0089840951958841E-02 
   -1.0089799239829510E-02 
   -1.0635172282957951E-02 
   -1.0635125451408786E-02 
   -1.0089754488443762E-02 
   -1.0089706702167229E-02 
   -1.0635075427510722E-02 
   -1.0635022199320155E-02 
   -1.0089655879139733E-02 
   -1.0089602014078184E-02 
   -1.0634965751758990E-02 
   -1.0634906069394578E-02 
   -1.0089545101216311E-02 
   -1.0089485137460257E-02 
   -1.0634843139496978E-02 
   -1.0634776955549378E-02 
   -1.0089422125831742E-02 
   -1.0089356079229787E-02 
   -1.0634707521352585E-02 
   -1.0634634855780515E-02 
   -1.0089287024455627E-02 
   -1.0089215006300681E-02 
   -1.0634558998081415E-02 
   -1.0634480013347783E-02 
   -1.0089140091285809E-02 
   -1.0089062370372047E-02 
   -1.0634397997376711E-02 
   -1.0634313079634604E-02 
   -1.0088981959682742E-02 
   -1.0088898998086725E-02 
   -1.0634225422538180E-02 
   -1.0634135215016818E-02 
   -1.0088813640556563E-02 
   -1.0088726046736961E-02 
   -1.0634042658729387E-02 
   -1.0633947946800811E-02 
   -1.0088636365272772E-02 
   -1.0088544716046236E-02 
   -1.0633851237650682E-02 
   -1.0633752629721991E-02 
   -1.0088451174030160E-02 
   -1.1180859078251431E-02 
   -1.1726243197331095E-02 
   -1.1726237526337545E-02 
   -1.1180854014654540E-02 
   -1.1180844464588273E-02 
   -1.1726227009139931E-02 
   -1.1726211971541290E-02 
   -1.1180830647952953E-02 
   -1.1180812794274126E-02 
   -1.1726192736028053E-02 
   -1.1726169578866219E-02 
   -1.1180791113309035E-02 
   -1.1180765779219165E-02 
   -1.1726142712536230E-02 
   -1.1726112285678802E-02 
   -1.1180736925715988E-02 
   -1.1180704648128568E-02 
   -1.1726078392081476E-02 
   -1.1726041082570651E-02 
   -1.1180669008837324E-02 
   -1.1180630043664522E-02 
   -1.1726000376347728E-02 
   -1.1725956270299985E-02 
   -1.1180587767897930E-02 
   -1.1180542181401295E-02 
   -1.1725908745998761E-02 
   -1.1725857774670617E-02 
   -1.1180493272731157E-02 
   -1.1180441022418053E-02 
   -1.1725803320634333E-02 
   -1.1725745343723721E-02 
   -1.1180385405671595E-02 
   -1.1180326394802350E-02 
   -1.1725683801178355E-02 
   -1.1725618649444667E-02 
   -1.1180263961661503E-02 
   -1.1180198080402871E-02 
   -1.1725549846316088E-02 
   -1.1725477353859643E-02 
   -1.1180128730874450E-02 
   -1.1180055902936822E-02 
   -1.1725401142615820E-02 
   -1.1725321197586305E-02 
   -1.1179979601953900E-02 
   -1.1179899855559792E-02 
   -1.1725237526474799E-02 
   -1.1725150170407211E-02 
   -1.1179816721504691E-02 
   -1.1179730295846022E-02 
   -1.1725059216763225E-02 
   -1.1724964812603064E-02 
   -1.1179640719929922E-02 
   -1.1179548183566340E-02 
   -1.1724867175350127E-02 
   -1.1724766595085867E-02 
   -1.1179452920842475E-02 
   -1.1179355194823383E-02 
   -1.1724663420946069E-02 
   -1.1724558024690366E-02 
   -1.1179255268985361E-02 
   -1.1179153367520582E-02 
   -1.1724450740366920E-02 
   -1.1724341791617554E-02 
   -1.1179049633237032E-02 
   -1.2271625511182284E-02 
   -1.2817006328741158E-02 
   -1.2816998731029039E-02 
   -1.2271619036125791E-02 
   -1.2271607264018264E-02 
   -1.2816985257671991E-02 
   -1.2816966701352834E-02 