# vtk DataFile Version 2.0
Pressure Field Data 
ASCII 
DATASET UNSTRUCTURED_GRID 

POINTS 8259 float 

    0.0000000000000000E+00     0.0000000000000000E+00     0.0000000000000000E+00 
    5.0000000000000000E-01     0.0000000000000000E+00     0.0000000000000000E+00 
    1.0000000000000000E+00     0.0000000000000000E+00     0.0000000000000000E+00 
    1.0000000000000000E+00     1.0000000000000000E+00     0.0000000000000000E+00 
    5.0000000000000000E-01     1.0000000000000000E+00     0.0000000000000000E+00 
    0.0000000000000000E+00     1.0000000000000000E+00     0.0000000000000000E+00 
    1.5624999999970940E-02     0.0000000000000000E+00     0.0000000000000000E+00 
    3.1249999999936530E-02     0.0000000000000000E+00     0.0000000000000000E+00 
    4.6874999999911612E-02     0.0000000000000000E+00     0.0000000000000000E+00 
    6.2499999999886688E-02     0.0000000000000000E+00     0.0000000000000000E+00 
    7.8124999999841765E-02     0.0000000000000000E+00     0.0000000000000000E+00 
    9.3749999999796829E-02     0.0000000000000000E+00     0.0000000000000000E+00 
    1.0937499999975120E-01     0.0000000000000000E+00     0.0000000000000000E+00 
    1.2499999999970560E-01     0.0000000000000000E+00     0.0000000000000000E+00 
    1.4062499999966011E-01     0.0000000000000000E+00     0.0000000000000000E+00 
    1.5624999999961450E-01     0.0000000000000000E+00     0.0000000000000000E+00 
    1.7187499999956890E-01     0.0000000000000000E+00     0.0000000000000000E+00 
    1.8749999999952341E-01     0.0000000000000000E+00     0.0000000000000000E+00 
    2.0312499999947781E-01     0.0000000000000000E+00     0.0000000000000000E+00 
    2.1874999999943229E-01     0.0000000000000000E+00     0.0000000000000000E+00 
    2.3437499999938941E-01     0.0000000000000000E+00     0.0000000000000000E+00 
    2.4999999999934661E-01     0.0000000000000000E+00     0.0000000000000000E+00 
    2.6562499999938499E-01     0.0000000000000000E+00     0.0000000000000000E+00 
    2.8124999999942352E-01     0.0000000000000000E+00     0.0000000000000000E+00 
    2.9687499999946471E-01     0.0000000000000000E+00     0.0000000000000000E+00 
    3.1249999999950578E-01     0.0000000000000000E+00     0.0000000000000000E+00 
    3.2812499999954697E-01     0.0000000000000000E+00     0.0000000000000000E+00 
    3.4374999999958822E-01     0.0000000000000000E+00     0.0000000000000000E+00 
    3.5937499999962941E-01     0.0000000000000000E+00     0.0000000000000000E+00 
    3.7499999999967060E-01     0.0000000000000000E+00     0.0000000000000000E+00 
    3.9062499999971179E-01     0.0000000000000000E+00     0.0000000000000000E+00 
    4.0624999999975292E-01     0.0000000000000000E+00     0.0000000000000000E+00 
    4.2187499999979411E-01     0.0000000000000000E+00     0.0000000000000000E+00 
    4.3749999999983530E-01     0.0000000000000000E+00     0.0000000000000000E+00 
    4.5312499999987649E-01     0.0000000000000000E+00     0.0000000000000000E+00 
    4.6874999999991768E-01     0.0000000000000000E+00     0.0000000000000000E+00 
    4.8437499999995881E-01     0.0000000000000000E+00     0.0000000000000000E+00 
    5.1562500000000289E-01     0.0000000000000000E+00     0.0000000000000000E+00 
    5.3125000000000000E-01     0.0000000000000000E+00     0.0000000000000000E+00 
    5.4687500000001565E-01     0.0000000000000000E+00     0.0000000000000000E+00 
    5.6249999999999989E-01     0.0000000000000000E+00     0.0000000000000000E+00 
    5.7812499999996880E-01     0.0000000000000000E+00     0.0000000000000000E+00 
    5.9374999999999978E-01     0.0000000000000000E+00     0.0000000000000000E+00 
    6.0937500000000666E-01     0.0000000000000000E+00     0.0000000000000000E+00 
    6.2499999999999978E-01     0.0000000000000000E+00     0.0000000000000000E+00 
    6.4062499999998734E-01     0.0000000000000000E+00     0.0000000000000000E+00 
    6.5624999999999978E-01     0.0000000000000000E+00     0.0000000000000000E+00 
    6.7187499999999822E-01     0.0000000000000000E+00     0.0000000000000000E+00 
    6.8749999999999978E-01     0.0000000000000000E+00     0.0000000000000000E+00 
    7.0312499999999978E-01     0.0000000000000000E+00     0.0000000000000000E+00 
    7.1874999999999978E-01     0.0000000000000000E+00     0.0000000000000000E+00 
    7.3437499999999645E-01     0.0000000000000000E+00     0.0000000000000000E+00 
    7.4999999999999978E-01     0.0000000000000000E+00     0.0000000000000000E+00 
    7.6562499999996581E-01     0.0000000000000000E+00     0.0000000000000000E+00 
    7.8124999999999978E-01     0.0000000000000000E+00     0.0000000000000000E+00 
    7.9687500000006262E-01     0.0000000000000000E+00     0.0000000000000000E+00 
    8.1249999999999989E-01     0.0000000000000000E+00     0.0000000000000000E+00 
    8.2812499999998379E-01     0.0000000000000000E+00     0.0000000000000000E+00 
    8.4374999999999989E-01     0.0000000000000000E+00     0.0000000000000000E+00 
    8.5937500000000644E-01     0.0000000000000000E+00     0.0000000000000000E+00 
    8.7499999999999989E-01     0.0000000000000000E+00     0.0000000000000000E+00 
    8.9062499999999778E-01     0.0000000000000000E+00     0.0000000000000000E+00 
    9.0625000000000000E-01     0.0000000000000000E+00     0.0000000000000000E+00 
    9.2187500000000644E-01     0.0000000000000000E+00     0.0000000000000000E+00 
    9.3750000000000000E-01     0.0000000000000000E+00     0.0000000000000000E+00 
    9.5312499999997879E-01     0.0000000000000000E+00     0.0000000000000000E+00 
    9.6875000000000000E-01     0.0000000000000000E+00     0.0000000000000000E+00 
    9.8437499999997480E-01     0.0000000000000000E+00     0.0000000000000000E+00 
    1.0000000000000000E+00     1.5624999999970180E-02     0.0000000000000000E+00 
    1.0000000000000000E+00     3.1249999999940509E-02     0.0000000000000000E+00 
    1.0000000000000000E+00     4.6874999999906783E-02     0.0000000000000000E+00 
    1.0000000000000000E+00     6.2499999999873053E-02     0.0000000000000000E+00 
    1.0000000000000000E+00     7.8124999999848468E-02     0.0000000000000000E+00 
    1.0000000000000000E+00     9.3749999999823891E-02     0.0000000000000000E+00 
    1.0000000000000000E+00     1.0937499999979861E-01     0.0000000000000000E+00 
    1.0000000000000000E+00     1.2499999999977340E-01     0.0000000000000000E+00 
    1.0000000000000000E+00     1.4062499999972911E-01     0.0000000000000000E+00 
    1.0000000000000000E+00     1.5624999999968489E-01     0.0000000000000000E+00 
    1.0000000000000000E+00     1.7187499999963929E-01     0.0000000000000000E+00 
    1.0000000000000000E+00     1.8749999999959369E-01     0.0000000000000000E+00 
    1.0000000000000000E+00     2.0312499999954800E-01     0.0000000000000000E+00 
    1.0000000000000000E+00     2.1874999999950240E-01     0.0000000000000000E+00 
    1.0000000000000000E+00     2.3437499999945680E-01     0.0000000000000000E+00 
    1.0000000000000000E+00     2.4999999999941119E-01     0.0000000000000000E+00 
    1.0000000000000000E+00     2.6562499999936562E-01     0.0000000000000000E+00 
    1.0000000000000000E+00     2.8124999999931999E-01     0.0000000000000000E+00 
    1.0000000000000000E+00     2.9687499999927452E-01     0.0000000000000000E+00 
    1.0000000000000000E+00     3.1249999999922901E-01     0.0000000000000000E+00 
    1.0000000000000000E+00     3.2812499999918338E-01     0.0000000000000000E+00 
    1.0000000000000000E+00     3.4374999999913791E-01     0.0000000000000000E+00 
    1.0000000000000000E+00     3.5937499999909228E-01     0.0000000000000000E+00 
    1.0000000000000000E+00     3.7499999999904682E-01     0.0000000000000000E+00 
    1.0000000000000000E+00     3.9062499999900119E-01     0.0000000000000000E+00 
    1.0000000000000000E+00     4.0624999999895561E-01     0.0000000000000000E+00 
    1.0000000000000000E+00     4.2187499999891009E-01     0.0000000000000000E+00 
    1.0000000000000000E+00     4.3749999999886452E-01     0.0000000000000000E+00 
    1.0000000000000000E+00     4.5312499999881900E-01     0.0000000000000000E+00 
    1.0000000000000000E+00     4.6874999999877343E-01     0.0000000000000000E+00 
    1.0000000000000000E+00     4.8437499999873318E-01     0.0000000000000000E+00 
    1.0000000000000000E+00     4.9999999999869310E-01     0.0000000000000000E+00 
    1.0000000000000000E+00     5.1562499999872891E-01     0.0000000000000000E+00 
    1.0000000000000000E+00     5.3124999999876465E-01     0.0000000000000000E+00 
    1.0000000000000000E+00     5.4687499999880584E-01     0.0000000000000000E+00 
    1.0000000000000000E+00     5.6249999999884692E-01     0.0000000000000000E+00 
    1.0000000000000000E+00     5.7812499999888822E-01     0.0000000000000000E+00 
    1.0000000000000000E+00     5.9374999999892941E-01     0.0000000000000000E+00 
    1.0000000000000000E+00     6.0937499999897060E-01     0.0000000000000000E+00 
    1.0000000000000000E+00     6.2499999999901168E-01     0.0000000000000000E+00 
    1.0000000000000000E+00     6.4062499999905287E-01     0.0000000000000000E+00 
    1.0000000000000000E+00     6.5624999999909406E-01     0.0000000000000000E+00 
    1.0000000000000000E+00     6.7187499999913525E-01     0.0000000000000000E+00 
    1.0000000000000000E+00     6.8749999999917644E-01     0.0000000000000000E+00 
    1.0000000000000000E+00     7.0312499999921751E-01     0.0000000000000000E+00 
    1.0000000000000000E+00     7.1874999999925870E-01     0.0000000000000000E+00 
    1.0000000000000000E+00     7.3437499999930000E-01     0.0000000000000000E+00 
    1.0000000000000000E+00     7.4999999999934119E-01     0.0000000000000000E+00 
    1.0000000000000000E+00     7.6562499999938238E-01     0.0000000000000000E+00 
    1.0000000000000000E+00     7.8124999999942357E-01     0.0000000000000000E+00 
    1.0000000000000000E+00     7.9687499999946465E-01     0.0000000000000000E+00 
    1.0000000000000000E+00     8.1249999999950584E-01     0.0000000000000000E+00 
[...]
CELL_DATA 8130 
SCALARS Pressure float 1 
LOOKUP_TABLE default 

    4.4890922439445831E+00 
    4.3810787113895362E+00 
    4.3114329220737808E+00 
    4.0328117452008936E+00 
    4.1516999355408908E+00 
    4.2220562966338520E+00 
    2.1084715137560499E+00 
    2.2189122383550162E+00 
    2.2854470790244479E+00 
    2.7704185158241614E+00 
    2.6172503108307068E+00 
    2.7765500511832628E+00 
    2.4485339971301321E+00 
    2.5539900475515482E+00 
    2.6038019223558058E+00 
    2.8763498069614286E+00 
    2.7589484227533072E+00 
    2.7070268499146786E+00 
    4.7259954397295116E+00 
    4.7164198257402665E+00 
    4.8534356374725673E+00 
    5.6638800409895671E+00 
    5.4985117298534201E+00 
    5.5586789351496497E+00 
    2.3361878793270221E+00 
    2.5016520208887960E+00 
    2.4419630434840567E+00 
    4.6804826166866338E+00 
    4.6066068000292901E+00 
    4.5171453905479231E+00 
    3.3193099972836326E+00 
    3.3926514558539367E+00 
    3.4825179620103675E+00 
    4.5893691151609639E+00 
    4.4779212576537999E+00 
    4.5845591548519584E+00 
    4.3343047010673681E+00 
    4.3918441376245845E+00 
    4.4596309101062630E+00 
    4.6765990610083588E+00 
    4.5864216620994780E+00 
    4.5165055335533220E+00 
    5.0748804371113705E+00 
    4.9036040685344116E+00 
    4.9839304183022870E+00 
    4.6335663585699649E+00 
    4.8234060719509948E+00 
    4.7460198415875077E+00 
    6.1636109207080620E+00 
    6.1912748582296508E+00 
    6.3369580687111267E+00 
    6.8031926349706353E+00 
    6.9717251784136494E+00 
    6.8365795627169383E+00 
    2.8658688521597755E+00 
    2.9491457188369861E+00 
    2.8050963220539646E+00 
    2.9274828146816314E+00 
    2.9283332656956276E+00 
    3.0524546036017557E+00 
    2.5707629846910791E+00 
    2.4334589883866342E+00 
    2.4778599985182233E+00 
    7.7518451205422068E+00 
    7.6128182656239600E+00 
    7.6182190308380937E+00 
    6.9408303664187052E+00 
    6.8219092461306179E+00 
    6.7902243138705796E+00 
    2.9878533922875596E+00 
    3.1318199813409073E+00 
    3.0657595088266714E+00 
    5.3753689569606700E-01 
    7.2916972333240748E-01 
    6.5210364717850655E-01 
    6.7253588593794866E+00 
    6.6838318599555393E+00 
    6.5495510182950856E+00 
    6.4463684089567579E+00 
    6.4466714245248218E+00 
    6.5853171598237248E+00 
    2.2431548828596481E+00 
    2.3586380783914604E+00 
    2.3218745678452439E+00 
    6.4532155871306056E+00 
    6.3218096502326935E+00 
    6.2922839147248935E+00 
    6.0120663923772097E+00 
    6.1319348754642586E+00 
    6.1656832840006839E+00 
    3.4369501449782982E+00 
    3.5826281618612703E+00 
    3.4346245258154355E+00 
    3.6542362067047081E+00 
    3.5653470005730772E+00 
    3.5290271256627430E+00 
    3.3166511397227345E+00 
    3.4061438186323243E+00 
    3.4430613569023496E+00 
    4.5275513996800916E+00 
    4.6660731932027923E+00 
    4.5305258457960171E+00 
    5.7433779466370920E+00 
    5.6457421169590765E+00 
    5.5756008119153497E+00 
    6.1916629882317276E+00 
    6.3334499954270864E+00 
    6.3218950676427035E+00 
    8.5297812953189589E-01 
    1.0646134225323653E+00 
    9.7197044986052972E-01 
    6.2111330332763055E+00 
    6.0383886042544566E+00 
    6.0330956603665511E+00 
    6.6325919191929419E+00 
    6.4835674261706204E+00 
    6.4423728701785796E+00 
    1.4376833857586466E+00 
    1.3391562965614900E+00 
    1.2651139487033425E+00 
    8.9953861916542643E-01 
    7.2246664474886091E-01 
    7.9057830536149887E-01 
    6.4632528389508570E+00 
    6.5697083457601151E+00 
    6.6396109785288333E+00 
    4.5563775402401951E+00 
    4.4112822458829797E+00 
    4.5454040504327446E+00 
    3.4807047065016499E+00 
    3.4968995403714853E+00 
    3.6403392246960058E+00 
    6.1067988683911469E+00 
    6.2344135881694172E+00 
    6.0926624529939843E+00 
    6.0863494736281938E+00 
    6.2415773275134550E+00 
    6.2488409697908818E+00 
    1.5636484276078113E+00 
    1.6143581194078558E+00 
    1.4687448205248348E+00 
    3.0839145866370403E+00 
    3.2507724176804151E+00 
    3.1008213741546991E+00 
    3.3207836721430160E+00 
    3.1854510147550053E+00 
    3.3340879284293945E+00 
    6.0210722955195939E+00 
    6.1847864793138658E+00 
    6.0570490710619804E+00 
    3.4223406973267054E+00 
    3.3690054330332897E+00 
    3.5424144691173249E+00 
    3.3857644695039819E+00 
    3.3750592136522037E+00 
    3.2437444054596756E+00 
    3.5142708803170608E+00 
    3.6103356009197918E+00 
    3.5117913168917250E+00 
    6.2244561411322312E+00 
    6.3951167052659956E+00 
    6.3580293983199558E+00 
    6.8478930170247807E+00 
    6.9603696249195632E+00 
    7.0145617342249498E+00 
    5.3460665287696685E+00 
    5.2324493628891382E+00 
    5.4015840098505459E+00 
    2.6541363108657121E+00 
    2.7677448090054493E+00 
    2.5991470266670791E+00 
    6.6973202443623618E+00 
    6.5228681114966296E+00 
    6.6087375546655460E+00 
    6.5993444234315151E+00 
    6.5164587360028197E+00 
    6.4491747168984173E+00 
    9.8349877192031154E-01 
    1.1055968415784081E+00 
    1.1809890880659379E+00 
    4.2769031771514804E-01 
    6.2240695427883863E-01 
    5.6261125607697138E-01 
    1.6277405448947952E+00 
    1.5065849545364554E+00 
    1.7100921256016266E+00 
    9.2296994926666165E-01 
    1.0260480852828120E+00 
    8.2634146356496729E-01 
    3.0049768439109608E+00 
    3.0756437500464457E+00 
    2.8888949064947576E+00 
    2.8902364332726775E+00 
    2.8468962930355692E+00 
    3.0336429665085687E+00 
    3.7986588252182742E+00 
    3.9163133592424439E+00 
    3.9185172776506589E+00 
    6.2952535996761920E+00 
    6.1660660967439638E+00 
    6.2930621873219597E+00 
    4.9695060466280268E+00 
    5.1148491878150200E+00 
    5.1081102432823888E+00 
    5.4410045086955643E+00 
    5.2772308715954015E+00 
    5.2810126406136462E+00 
    9.8194764957612302E-01 
    1.1856963282277784E+00 
    1.1141780974811650E+00 
    4.0806405285447905E-01 
    5.2243812799405820E-01 
    6.0924186146926107E-01 
    5.3676730754935713E+00 
    5.4425690612736606E+00 
    5.5144949687477434E+00 
    1.0248850406265022E+00 
    9.1365253701118809E-01 
    1.0556527616047335E+00 
    2.4159275103695732E+00 
    2.5704388029409224E+00 
    2.4638697323584524E+00 
    1.6750718246658167E+00 
    1.6937699261816097E+00 
    1.8031169673981033E+00 
    7.3650374718784537E+00 
    7.4816224498667125E+00 
    7.4703066214964648E+00 
    6.5637659362118974E+00 
    6.6511185844893275E+00 
    6.6883087220541668E+00 
    9.3509098051960027E-01 
    9.1784914569766807E-01 
    1.1060541580556331E+00 
    2.7123444599576446E-01 
    2.6507054642546479E-01 
    4.4473059325832115E-01 
    4.1011407198406475E+00 
    4.2605842703959720E+00 
    4.2592330200239088E+00 
    3.8891466395532857E+00 
    3.7337487140593133E+00 
    3.7281812179858784E+00 
    7.2859124551485062E+00 
    7.1728405507485871E+00 
    7.1278927598599138E+00 
    2.2788013435527312E+00 
    2.3252854618152616E+00 
    2.1784830960046020E+00 
    1.5441041566895459E+00 
    1.4297947559987767E+00 
    1.5610768423469261E+00 
    6.2310834729514406E+00 
    6.3196769059508844E+00 
    6.3819911139084731E+00 
    5.4085463006304146E-01 
    6.7104630900773643E-01 
    7.3856485823363738E-01 
    3.7251504926553922E+00 
    3.7136529193188590E+00 
    3.8448963509782579E+00 
    6.7584209326348974E+00 
    6.7482951742257837E+00 
    6.8865298169740070E+00 
    1.2418586062862507E+00 
    1.2529678322527165E+00 
    1.1133948484716962E+00 
    5.7876344691788608E+00 
    5.9357014811201250E+00 
    5.8069426438813405E+00 
    2.2131202655141542E+00 
    2.0640349002883784E+00 
    2.1951121933882951E+00 
    4.0273403366183764E+00 
    4.1783207026279792E+00 
    4.0232828198031907E+00 
    3.9709666929265697E+00 
    3.8188350690047561E+00 
    3.9725673587973960E+00 
    6.1736380924779519E+00 
    5.9836292248519749E+00 
    6.1118873690382181E+00 
    6.9418257305048732E+00 
    6.7962040973322138E+00 
    6.8425792760433035E+00 
    4.2885782287750276E+00 
    4.4502861151949489E+00 
    4.3137953969618188E+00 
    6.9958387853844108E+00 
    7.0472022101113483E+00 
    7.1460513142444011E+00 
    4.3045829975229974E+00 
    4.1207565112066540E+00 
    4.1995117039767669E+00 
    3.9071294055145054E+00 
    4.0550496286685345E+00 
    3.9768244951718832E+00 
    3.7193417347268873E+00 
    3.5329790958389871E+00 
    3.6846924762271200E+00 
    3.5307135468224293E-01 
    5.2403410816403306E-01 
    4.9145065831490331E-01 
    9.8246330063687193E-01 
    1.1138525408717819E+00 
    1.1672724672424812E+00 
    2.5745160323206413E+00 
    2.6140520873361410E+00 
    2.4602878070590735E+00 
    6.1473368872130427E+00 
    6.3052270739000660E+00 
    6.2560370227323849E+00 
    6.5507463802627193E+00 
    6.3985942015437001E+00 
    6.4518564235768618E+00 
    5.7349557307876955E+00 
    5.6566267343088548E+00 
    5.5781355353231490E+00 
    5.3358341905747890E+00 
    5.4367706981620163E+00 
    5.5135605636060960E+00 
    4.0201381063760442E+00 
    4.2082046452764414E+00 
    4.1107281737595613E+00 
    3.3279564038885536E+00 
    3.4028751805309279E+00 
    3.2202998029670473E+00 
    6.1625771680358730E+00 
    6.0978431307210865E+00 
    5.9853103161430745E+00 
    6.4610706618318483E+00 
    6.6361025774244462E+00 
    6.5614576994815517E+00 
    6.9341421220651318E+00 
    6.9505326552894351E+00 
    6.8124918899717617E+00 
    1.7355602197834213E-01 
    3.3009902350366854E-01 
    3.1029798092085792E-01 
    6.8368800775435687E+00 
    6.7170197763060369E+00 
    6.6792793499052472E+00 
    8.9322330073317177E-02 
    2.2793575438950339E-01 
    9.5393048763059124E-02 
    7.9103417304082502E+00 
    7.7703206552370077E+00 
    7.9039809275200845E+00 
    7.8261198775888294E+00 
    7.6692869805933421E+00 
    7.6879680985672882E+00 
    1.0648587028983609E+00 
    1.0488388038976948E+00 
    1.1849887492156896E+00 
    1.1619572176798862E+00 
    1.2795352550751344E+00 
    1.3191665584824077E+00 
    1.7539988645588209E+00 
    1.5875873442083399E+00 
    1.5999112120279180E+00 
    1.2556657971517271E+00 
    1.4237907545339559E+00 
    1.4126825113854136E+00 
    3.6518982940288831E+00 
    3.5104571484913825E+00 
    3.4688391515775443E+00 
    3.1872642713486750E+00 
    3.3003638242088353E+00 
    3.3526996890865508E+00 
    2.0794846248791159E+00 
    2.2585956603734205E+00 
    2.1377597438003528E+00 
    1.9394981800954081E+00 
    1.7723418433572329E+00 
    1.8421110709249418E+00 
    1.5048922867224670E+00 
    1.6855971341481770E+00 
    1.6188050117298520E+00 
    4.3570201042686891E+00 
    4.5017255231309381E+00 
    4.5180635590473610E+00 
    6.1199836349945489E+00 
    6.0686633210606189E+00 
    6.2126894906120995E+00 
    6.6854726332669152E+00 
    6.4913169142166591E+00 
    6.6302875404182728E+00 
    5.0612145733822071E+00 
    5.1494962283993795E+00 
    5.0035720526697096E+00 
    2.9351567212982008E+00 
    2.8465330187747289E+00 
    2.9916657691699617E+00 
    2.6816190188723423E+00 
    2.5281065747623757E+00 
    2.5294971178597661E+00 
    3.5886012745499061E+00 
    3.7348518130865505E+00 
    3.7333358924646607E+00 
    3.0690502075611157E+00 
    3.0236917759863293E+00 
    3.1794714210634578E+00 
    6.2956726373927765E+00 
    6.2745133410137335E+00 
    6.1279793772112416E+00 
    6.5683984205849075E+00 
    6.7086201099770175E+00 
    6.6591323992479108E+00 
    1.7829759060363590E+00 
    1.9428968804626601E+00 
    1.9624394769987905E+00 
    7.0264160688476751E-01 
    8.6321087799925567E-01 
    8.4949537999393154E-01 
    5.9914485708707321E+00 
    5.8533309801366888E+00 
    5.9308942371278581E+00 
    2.7328378319186895E+00 
    2.6772494754269252E+00 
    2.5812700912831690E+00 
    7.2824666051692075E+00 
    7.0914339329596201E+00 
    7.1160511146476022E+00 
    3.1331734964288311E+00 
    3.1229909987356606E+00 
    3.0033609561995256E+00 
    5.4490284286686155E+00 
    5.4433342863946894E+00 
    5.2947447863063060E+00 
    2.5516500133602102E+00 
    2.5576101997073875E+00 
    2.7058683075529943E+00 
    6.8667061907162674E+00 
    6.7978254669763976E+00 
    6.9239083000783923E+00 
    1.1371982113897936E+00 
    1.1817502404119291E+00 
    1.2955483340227962E+00 
    4.6109656470191958E+00 
    4.6517009008738475E+00 
    4.5070812113609122E+00 
    1.3868017090361420E+00 
    1.3506446144198074E+00 
    1.5095887058794710E+00 
    1.6066802821727642E+00 
    1.5805834062409985E+00 
    1.4293433615514886E+00 
    5.1804006398540547E+00 
    5.3202736772071217E+00 
    5.2583531058023096E+00 
    2.8157644702207536E+00 
    2.6747428684734889E+00 
    2.7394324737480686E+00 
    5.0197886610386080E+00 
    5.1671423329948833E+00 
    5.1049220513749107E+00 
    2.9770868735000149E+00 
    2.8296755797852815E+00 
    2.8945654486742964E+00 
    5.8176820734753374E+00 
    5.9836259708788022E+00 
    5.8499212326811518E+00 
    1.7789508225475219E+00 
    1.8647805478894006E+00 
    1.9324065443396465E+00 
    2.1654079755892477E+00 
    2.0654812697563965E+00 
    2.0051491269866974E+00 
    1.4551377526677398E+00 
    1.3073076252607334E+00 
    1.3395872096146457E+00 
    1.0573581856751098E+00 
    1.2023906985063038E+00 
    1.1627773493673439E+00 
    3.3406989883562441E+00 
    3.2299361370224102E+00 
    3.4028702941403206E+00 
    7.3294818874798011E+00 
    7.3435310946110697E+00 
    7.1825598066458571E+00 
    4.8053675386300014E+00 
    4.9264818513553035E+00 
    4.9241628580508454E+00 
    2.4484009088407612E+00 
    2.3933914820934512E+00 
    2.5787865942074526E+00 
    1.1921668106051384E+00 
    1.3464195912645065E+00 
    1.3239904294799087E+00 
    2.2188925403586550E+00 
    2.3367762254928119E+00 
    2.3689387091343028E+00 
    2.5096514815982864E+00 
    2.5959685071908609E+00 
    2.4168937255662111E+00 
    2.7121227839390327E+00 
    2.7279799533376248E+00 
    2.8619849616065318E+00 
    2.9135944542324412E+00 
    2.9365887367178045E+00 
    2.7942501637270127E+00 
    1.8471941765379902E+00 
    1.6988263810010389E+00 
    1.8490036790934548E+00 
    6.0185036902489051E+00 
    6.0701179163995809E+00 
    5.9251936523125419E+00 
    3.3304660328999760E+00 
    3.4425558082288070E+00 
    3.5130092096784789E+00 
    5.3102248778213914E+00 
    5.1498734298452433E+00 
    5.2073158119748495E+00 
    6.8063273079127062E-01 
    8.3198978668198276E-01 
    8.5300377110869119E-01 
    3.7361287772058556E+00 
    3.6636132178835505E+00 
    3.5842342010324506E+00 
    4.3571106516807738E+00 
    4.2979203191097088E+00 
    4.2340055030263501E+00 
    2.5135143269740734E+00 
    2.5812823302559256E+00 
    2.4399518498423882E+00 
    5.0878348213367914E+00 
    5.0274572115870093E+00 
    4.9194311457581970E+00 
    4.7096148386904373E+00 
    4.7820348235821690E+00 
    4.8912232368155584E+00 
    7.3872190639159285E+00 
    7.3948191132797065E+00 
    7.2185949453771805E+00 
    6.0254605054665344E-01 
    7.7718777314573129E-01 
    6.1502658049179026E-01 
    4.0605900982214171E+00 
    4.1534279370952856E+00 
    4.2244208570534214E+00 
    4.4118510330804765E+00 
    4.3540172181199841E+00 
    4.2825757088351804E+00 
    6.3500610678922103E+00 
    6.2947548138827214E+00 
    6.4896418659960489E+00 
    6.4363628078780062E+00 
    6.5170850149174120E+00 
    6.3284258821646624E+00 
    5.7927519652348325E+00 
    5.6900460858082171E+00 
    5.8621598726521293E+00 
    2.2074056972749267E+00 
    2.3105778538829327E+00 
    2.1382986423818804E+00 
    4.8218429120080826E+00 
    4.9105167539876886E+00 
    4.7462439077402525E+00 
    3.1780654167726685E+00 
    3.0897882423356173E+00 
    3.2532831045000052E+00 
    4.5442592962341397E+00 
    4.4100038273835604E+00 
    4.4738221609706601E+00 
    4.7068548601540554E+00 
    4.7003098853532066E+00 
    4.8423029354295446E+00 
    6.7841572800276282E+00 
    6.8684678630266855E+00 
    6.6984518960107531E+00 
    6.6848927000475804E+00 
    6.6651864440608959E+00 
    6.8289643574555807E+00 
    3.5612402324945998E+00 
    3.3823862863536296E+00 
    3.4606430334394123E+00 
    4.4348196216688809E+00 
    4.6143622536291193E+00 
    4.5480419854064351E+00 
    2.1701575818028096E+00 
    2.3200105794183474E+00 
    2.1896671166351505E+00 
    3.2906584024755174E+00 
    3.2817526998064972E+00 
    3.1696627331428791E+00 
    5.0146415569531486E+00 
    4.9345586202336174E+00 
    5.1211662318349775E+00 
    5.1179596945395875E+00 
    5.1631947038336286E+00 
    4.9671880382446849E+00 
    5.3971084395825688E+00 
    5.2434407586307294E+00 
    5.2963019743799684E+00 
    2.6030213666473427E+00 
    2.7565352580601110E+00 
    2.7026036479086737E+00 
    5.9065057777568049E+00 
    5.8687133160598668E+00 
    6.0193971130558674E+00 
    7.4761134398155327E-01 
    7.3730390629869380E-01 
    8.6559045252293820E-01 
    6.3346391138491605E+00 
    6.4449401926186960E+00 
    6.2932070218080183E+00 
    2.3901280215869454E+00 
    2.3113632819829335E+00 
    2.2234527876932697E+00 
    6.9474653032129625E+00 
    6.7992553639736713E+00 
    6.8358906615544512E+00 
    6.3436319057762418E+00 
    6.5016238992670132E+00 
    6.3928920721900004E+00 
    1.6597961841813811E+00 
    1.5010228957004501E+00 
    1.6086489270735891E+00 
    5.4287245087405198E+00 
    5.4585525237265689E+00 
    5.5782374332800631E+00 
    2.5819261690228537E+00 
    2.5497895392132004E+00 
    2.4303558750558651E+00 
    3.4194495597320378E+00 
    3.5373726720078427E+00 
    3.3674691954704863E+00 
    4.4221747323075915E+00 
    4.5581852818314177E+00 
    4.4961297311839488E+00 
    1.6201506406650767E+00 
    1.4988206550009389E+00 
    1.4604307669716645E+00 
    2.5210266472109337E+00 
    2.3689170501667625E+00 
    2.3861502460679920E+00 
    2.6258195314215564E+00 
    2.4701257096115410E+00 
    2.5685738641431524E+00 
    6.1821454029183665E+00 
    6.1432531343620891E+00 
    6.0372052369568667E+00 
    6.5186979440068118E+00 
    6.3619950398823661E+00 
    6.5074223531923412E+00 
    6.3877124194635568E+00 
    6.5134977949705632E+00 
    6.5470640171626115E+00 
    5.4905020787606080E+00 
    5.6406798922064851E+00 
    5.6257471500232441E+00 
    1.0775849139306048E+00 
    9.9918505104426047E-01 
    1.1352584572601099E+00 
    2.4630765578279767E+00 
    2.3607370653221995E+00 
    2.3256707538235042E+00 
    5.6144252139059745E+00 
    5.6576726185165942E+00 
    5.7646051351450556E+00 
    5.8870281949306689E+00 
    5.8683741350338297E+00 
    5.7535757642038314E+00 
    2.6821670747763493E+00 
    2.7978238752428854E+00 
    2.6699561691917735E+00 
    1.2471012424820807E+00 
    1.1163481686843579E+00 
    1.2086672409673347E+00 
    6.9046107156616081E+00 
    6.9860983615364551E+00 
    7.0443400590473253E+00 
    2.1037112566998126E+00 
    1.9938130838383350E+00 
    1.9942984340302026E+00 
    1.7337957069134069E+00 
    1.8613899154208586E+00 
    1.8575934072858074E+00 
    6.6099598457383228E+00 
    6.4833804706301468E+00 
    6.5980557819219818E+00 
    1.3905523531396780E+00 
    1.5174870661881961E+00 
    1.4036258381709548E+00 
    5.6391049386645493E+00 
    5.6545735785496785E+00 
    5.5292679348038973E+00 
    2.3565956981233627E+00 
    2.3492709144948276E+00 
    2.4685329662546525E+00 
    3.6014639595979769E+00 
    3.5662693028730890E+00 
    3.4257273890192357E+00 
    4.3874357381716367E+00 
    4.4187577742576023E+00 
    4.5655434562691362E+00 
    4.7814030761055761E+00 
    4.6297631239465433E+00 
    4.6913245880707697E+00 
    9.4825727098830559E-01 
    7.9167602567949868E-01 
    8.7176863349713041E-01 
    4.5892436530802341E+00 
    4.7578078675701176E+00 
    4.7003691281985294E+00 
    3.4128286408373980E+00 
    3.2415074345907731E+00 
    3.3049366472525241E+00 
    2.4119179146153327E+00 
    2.5632383698104433E+00 
    2.4386399675358299E+00 