# vtk DataFile Version 2.0
Pressure Field Data 
ASCII 
DATASET UNSTRUCTURED_GRID 

POINTS 1089 float 

    0.0000000000000000E+00     0.0000000000000000E+00     0.0000000000000000E+00 
    1.0000000000000000E+00     0.0000000000000000E+00     0.0000000000000000E+00 
    1.0000000000000000E+00     1.0000000000000000E+00     0.0000000000000000E+00 
    0.0000000000000000E+00     1.0000000000000000E+00     0.0000000000000000E+00 
    3.1249999999940450E-02     0.0000000000000000E+00     0.0000000000000000E+00 
    6.2499999999872928E-02     0.0000000000000000E+00     0.0000000000000000E+00 
    9.3749999999823710E-02     0.0000000000000000E+00     0.0000000000000000E+00 
    1.2499999999977310E-01     0.0000000000000000E+00     0.0000000000000000E+00 
    1.5624999999968461E-01     0.0000000000000000E+00     0.0000000000000000E+00 
    1.8749999999959341E-01     0.0000000000000000E+00     0.0000000000000000E+00 
    2.1874999999950220E-01     0.0000000000000000E+00     0.0000000000000000E+00 
    2.4999999999941089E-01     0.0000000000000000E+00     0.0000000000000000E+00 
    2.8124999999931971E-01     0.0000000000000000E+00     0.0000000000000000E+00 
    3.1249999999922851E-01     0.0000000000000000E+00     0.0000000000000000E+00 
    3.4374999999913730E-01     0.0000000000000000E+00     0.0000000000000000E+00 
    3.7499999999904610E-01     0.0000000000000000E+00     0.0000000000000000E+00 
    4.0624999999895489E-01     0.0000000000000000E+00     0.0000000000000000E+00 
    4.3749999999886358E-01     0.0000000000000000E+00     0.0000000000000000E+00 
    4.6874999999877243E-01     0.0000000000000000E+00     0.0000000000000000E+00 
    4.9999999999869210E-01     0.0000000000000000E+00     0.0000000000000000E+00 
    5.3124999999876366E-01     0.0000000000000000E+00     0.0000000000000000E+00 
    5.6249999999884603E-01     0.0000000000000000E+00     0.0000000000000000E+00 
    5.9374999999892852E-01     0.0000000000000000E+00     0.0000000000000000E+00 
    6.2499999999901090E-01     0.0000000000000000E+00     0.0000000000000000E+00 
    6.5624999999909339E-01     0.0000000000000000E+00     0.0000000000000000E+00 
    6.8749999999917577E-01     0.0000000000000000E+00     0.0000000000000000E+00 
    7.1874999999925815E-01     0.0000000000000000E+00     0.0000000000000000E+00 
    7.4999999999934064E-01     0.0000000000000000E+00     0.0000000000000000E+00 
    7.8124999999942302E-01     0.0000000000000000E+00     0.0000000000000000E+00 
    8.1249999999950551E-01     0.0000000000000000E+00     0.0000000000000000E+00 
    8.4374999999958789E-01     0.0000000000000000E+00     0.0000000000000000E+00 
    8.7499999999967026E-01     0.0000000000000000E+00     0.0000000000000000E+00 
    9.0624999999975275E-01     0.0000000000000000E+00     0.0000000000000000E+00 
    9.3749999999983513E-01     0.0000000000000000E+00     0.0000000000000000E+00 
    9.6874999999991762E-01     0.0000000000000000E+00     0.0000000000000000E+00 
    1.0000000000000000E+00     3.1249999999940450E-02     0.0000000000000000E+00 
    1.0000000000000000E+00     6.2499999999872928E-02     0.0000000000000000E+00 
    1.0000000000000000E+00     9.3749999999823710E-02     0.0000000000000000E+00 
    1.0000000000000000E+00     1.2499999999977310E-01     0.0000000000000000E+00 
    1.0000000000000000E+00     1.5624999999968461E-01     0.0000000000000000E+00 
    1.0000000000000000E+00     1.8749999999959341E-01     0.0000000000000000E+00 
    1.0000000000000000E+00     2.1874999999950220E-01     0.0000000000000000E+00 
    1.0000000000000000E+00     2.4999999999941089E-01     0.0000000000000000E+00 
    1.0000000000000000E+00     2.8124999999931971E-01     0.0000000000000000E+00 
    1.0000000000000000E+00     3.1249999999922851E-01     0.0000000000000000E+00 
    1.0000000000000000E+00     3.4374999999913730E-01     0.0000000000000000E+00 
    1.0000000000000000E+00     3.7499999999904610E-01     0.0000000000000000E+00 
    1.0000000000000000E+00     4.0624999999895489E-01     0.0000000000000000E+00 
    1.0000000000000000E+00     4.3749999999886358E-01     0.0000000000000000E+00 
    1.0000000000000000E+00     4.6874999999877243E-01     0.0000000000000000E+00 
    1.0000000000000000E+00     4.9999999999869210E-01     0.0000000000000000E+00 
    1.0000000000000000E+00     5.3124999999876366E-01     0.0000000000000000E+00 
    1.0000000000000000E+00     5.6249999999884603E-01     0.0000000000000000E+00 
    1.0000000000000000E+00     5.9374999999892852E-01     0.0000000000000000E+00 
    1.0000000000000000E+00     6.2499999999901090E-01     0.0000000000000000E+00 
    1.0000000000000000E+00     6.5624999999909339E-01     0.0000000000000000E+00 
    1.0000000000000000E+00     6.8749999999917577E-01     0.0000000000000000E+00 
    1.0000000000000000E+00     7.1874999999925815E-01     0.0000000000000000E+00 
    1.0000000000000000E+00     7.4999999999934064E-01     0.0000000000000000E+00 
    1.0000000000000000E+00     7.8124999999942302E-01     0.0000000000000000E+00 
    1.0000000000000000E+00     8.1249999999950551E-01     0.0000000000000000E+00 
    1.0000000000000000E+00     8.4374999999958789E-01     0.0000000000000000E+00 
    1.0000000000000000E+00     8.7499999999967026E-01     0.0000000000000000E+00 
    1.0000000000000000E+00     9.0624999999975275E-01     0.0000000000000000E+00 
    1.0000000000000000E+00     9.3749999999983513E-01     0.0000000000000000E+00 
    1.0000000000000000E+00     9.6874999999991762E-01     0.0000000000000000E+00 
    9.6874999999986988E-01     1.0000000000000000E+00     0.0000000000000000E+00 
    9.3749999999973976E-01     1.0000000000000000E+00     0.0000000000000000E+00 
    9.0624999999960965E-01     1.0000000000000000E+00     0.0000000000000000E+00 
    8.7499999999950118E-01     1.0000000000000000E+00     0.0000000000000000E+00 
    8.4374999999969635E-01     1.0000000000000000E+00     0.0000000000000000E+00 
    8.1249999999991318E-01     1.0000000000000000E+00     0.0000000000000000E+00 
    7.8125000000013012E-01     1.0000000000000000E+00     0.0000000000000000E+00 
    7.5000000000034706E-01     1.0000000000000000E+00     0.0000000000000000E+00 
    7.1875000000056377E-01     1.0000000000000000E+00     0.0000000000000000E+00 
    6.8750000000078049E-01     1.0000000000000000E+00     0.0000000000000000E+00 
    6.5625000000099731E-01     1.0000000000000000E+00     0.0000000000000000E+00 
    6.2500000000121403E-01     1.0000000000000000E+00     0.0000000000000000E+00 
    5.9375000000143086E-01     1.0000000000000000E+00     0.0000000000000000E+00 
    5.6250000000164757E-01     1.0000000000000000E+00     0.0000000000000000E+00 
    5.3125000000186429E-01     1.0000000000000000E+00     0.0000000000000000E+00 
    5.0000000000205946E-01     1.0000000000000000E+00     0.0000000000000000E+00 
    4.6875000000195099E-01     1.0000000000000000E+00     0.0000000000000000E+00 
    4.3750000000182099E-01     1.0000000000000000E+00     0.0000000000000000E+00 
    4.0625000000169093E-01     1.0000000000000000E+00     0.0000000000000000E+00 
    3.7500000000156092E-01     1.0000000000000000E+00     0.0000000000000000E+00 
    3.4375000000143069E-01     1.0000000000000000E+00     0.0000000000000000E+00 
    3.1250000000130068E-01     1.0000000000000000E+00     0.0000000000000000E+00 
    2.8125000000117062E-01     1.0000000000000000E+00     0.0000000000000000E+00 
    2.5000000000104050E-01     1.0000000000000000E+00     0.0000000000000000E+00 
    2.1875000000091049E-01     1.0000000000000000E+00     0.0000000000000000E+00 
    1.8750000000078040E-01     1.0000000000000000E+00     0.0000000000000000E+00 
    1.5625000000065040E-01     1.0000000000000000E+00     0.0000000000000000E+00 
    1.2500000000052031E-01     1.0000000000000000E+00     0.0000000000000000E+00 
    9.3750000000390243E-02     1.0000000000000000E+00     0.0000000000000000E+00 
    6.2500000000260125E-02     1.0000000000000000E+00     0.0000000000000000E+00 
    3.1250000000130118E-02     1.0000000000000000E+00     0.0000000000000000E+00 
    0.0000000000000000E+00     9.6874999999986988E-01     0.0000000000000000E+00 
    0.0000000000000000E+00     9.3749999999973976E-01     0.0000000000000000E+00 
    0.0000000000000000E+00     9.0624999999960965E-01     0.0000000000000000E+00 
    0.0000000000000000E+00     8.7499999999950118E-01     0.0000000000000000E+00 
    0.0000000000000000E+00     8.4374999999969635E-01     0.0000000000000000E+00 
    0.0000000000000000E+00     8.1249999999991318E-01     0.0000000000000000E+00 
    0.0000000000000000E+00     7.8125000000013012E-01     0.0000000000000000E+00 
    0.0000000000000000E+00     7.5000000000034706E-01     0.0000000000000000E+00 
    0.0000000000000000E+00     7.1875000000056377E-01     0.0000000000000000E+00 
    0.0000000000000000E+00     6.8750000000078049E-01     0.0000000000000000E+00 
    0.0000000000000000E+00     6.5625000000099731E-01     0.0000000000000000E+00 
    0.0000000000000000E+00     6.2500000000121403E-01     0.0000000000000000E+00 
    0.0000000000000000E+00     5.9375000000143086E-01     0.0000000000000000E+00 
    0.0000000000000000E+00     5.6250000000164757E-01     0.0000000000000000E+00 
    0.0000000000000000E+00     5.3125000000186429E-01     0.0000000000000000E+00 
    0.0000000000000000E+00     5.0000000000205946E-01     0.0000000000000000E+00 
    0.0000000000000000E+00     4.6875000000195099E-01     0.0000000000000000E+00 
    0.0000000000000000E+00     4.3750000000182099E-01     0.0000000000000000E+00 
    0.0000000000000000E+00     4.0625000000169093E-01     0.0000000000000000E+00 
    0.0000000000000000E+00     3.7500000000156092E-01     0.0000000000000000E+00 
    0.0000000000000000E+00     3.4375000000143069E-01     0.0000000000000000E+00 
    0.0000000000000000E+00     3.1250000000130068E-01     0.0000000000000000E+00 
    0.0000000000000000E+00     2.8125000000117062E-01     0.0000000000000000E+00 
[...]
CELL_DATA 2048 
SCALARS Pressure float 1 
LOOKUP_TABLE default 

    9.8958333333335313E-01 
    9.7916666666670438E-01 
    9.8958333333335124E-01 
    9.7916666666670049E-01 
    9.8958333333334925E-01 
    9.7916666666669649E-01 
    9.8958333333334725E-01 
    9.7916666666669250E-01 
    9.8958333333334525E-01 
    9.7916666666668861E-01 
    9.8958333333334325E-01 
    9.7916666666668462E-01 
    9.8958333333334136E-01 
    9.7916666666668073E-01 
    9.8958333333333937E-01 
    9.7916666666667673E-01 
    9.8958333333333737E-01 
    9.7916666666667274E-01 
    9.8958333333333537E-01 
    9.7916666666666885E-01 
    9.8958333333333348E-01 
    9.7916666666666485E-01 
    9.8958333333333148E-01 
    9.7916666666666097E-01 
    9.8958333333332948E-01 
    9.7916666666665697E-01 
    9.8958333333332749E-01 
    9.7916666666665297E-01 
    9.8958333333332549E-01 
    9.7916666666664909E-01 
    9.8958333333332349E-01 
    9.7916666666664509E-01 
    9.8958333333332160E-01 
    9.7916666666664121E-01 
    9.8958333333331960E-01 
    9.7916666666663721E-01 
    9.8958333333331761E-01 
    9.7916666666663321E-01 
    9.8958333333331561E-01 
    9.7916666666662933E-01 
    9.8958333333331372E-01 
    9.7916666666662533E-01 
    9.8958333333331172E-01 
    9.7916666666662144E-01 
    9.8958333333330972E-01 
    9.7916666666661745E-01 
    9.8958333333330772E-01 
    9.7916666666661345E-01 
    9.8958333333330573E-01 
    9.7916666666660956E-01 
    9.8958333333330384E-01 
    9.7916666666660557E-01 
    9.8958333333330184E-01 
    9.7916666666660168E-01 
    9.8958333333329984E-01 
    9.7916666666659768E-01 
    9.8958333333329784E-01 
    9.7916666666659369E-01 
    9.8958333333329584E-01 
    9.7916666666658980E-01 
    9.8958333333329396E-01 
    9.7916666666658581E-01 
    9.8958333333329196E-01 
    9.7916666666658192E-01 
    9.5833333333341342E-01 
    9.4791666666676522E-01 
    9.5833333333340542E-01 
    9.4791666666675523E-01 
    9.5833333333339743E-01 
    9.4791666666674512E-01 
    9.5833333333338944E-01 
    9.4791666666673513E-01 
    9.5833333333338144E-01 
    9.4791666666672503E-01 
    9.5833333333337345E-01 
    9.4791666666671504E-01 
    9.5833333333336546E-01 
    9.4791666666670493E-01 
    9.5833333333335757E-01 
    9.4791666666669494E-01 
    9.5833333333334958E-01 
    9.4791666666668484E-01 
    9.5833333333334159E-01 
    9.4791666666667485E-01 
    9.5833333333333359E-01 
    9.4791666666666474E-01 
    9.5833333333332560E-01 
    9.4791666666665475E-01 
    9.5833333333331761E-01 
    9.4791666666664476E-01 
    9.5833333333330961E-01 
    9.4791666666663466E-01 
    9.5833333333330162E-01 
    9.4791666666662466E-01 
    9.5833333333329362E-01 
    9.4791666666661456E-01 
    9.5833333333328563E-01 
    9.4791666666660457E-01 
    9.5833333333327764E-01 
    9.4791666666659447E-01 
    9.5833333333326975E-01 
    9.4791666666658447E-01 
    9.5833333333326176E-01 
    9.4791666666657437E-01 
    9.5833333333325377E-01 
    9.4791666666656438E-01 
    9.5833333333324577E-01 
    9.4791666666655439E-01 
    9.5833333333323778E-01 
    9.4791666666654428E-01 
    9.5833333333322979E-01 
    9.4791666666653429E-01 
    9.5833333333322179E-01 
    9.4791666666652419E-01 
    9.5833333333321380E-01 
    9.4791666666651420E-01 
    9.5833333333320581E-01 
    9.4791666666650409E-01 
    9.5833333333319781E-01 
    9.4791666666649410E-01 
    9.5833333333318982E-01 
    9.4791666666648400E-01 
    9.5833333333318182E-01 
    9.4791666666647401E-01 
    9.5833333333317383E-01 
    9.4791666666646401E-01 
    9.5833333333316584E-01 
    9.4791666666645391E-01 
    9.2708333333347281E-01 
    9.1666666666681662E-01 
    9.2708333333345883E-01 
    9.1666666666680074E-01 
    9.2708333333344484E-01 
    9.1666666666678487E-01 
    9.2708333333343085E-01 
    9.1666666666676910E-01 
    9.2708333333341697E-01 
    9.1666666666675323E-01 
    9.2708333333340298E-01 
    9.1666666666673746E-01 
    9.2708333333338899E-01 
    9.1666666666672159E-01 
    9.2708333333337500E-01 
    9.1666666666670582E-01 
    9.2708333333336101E-01 
    9.1666666666668994E-01 
    9.2708333333334703E-01 
    9.1666666666667407E-01 
    9.2708333333333304E-01 
    9.1666666666665819E-01 
    9.2708333333331916E-01 
    9.1666666666664243E-01 
    9.2708333333330517E-01 
    9.1666666666662655E-01 
    9.2708333333329118E-01 
    9.1666666666661079E-01 
    9.2708333333327719E-01 
    9.1666666666659491E-01 
    9.2708333333326332E-01 
    9.1666666666657903E-01 
    9.2708333333324933E-01 
    9.1666666666656327E-01 
    9.2708333333323534E-01 
    9.1666666666654739E-01 
    9.2708333333322135E-01 
    9.1666666666653152E-01 
    9.2708333333320736E-01 
    9.1666666666651575E-01 
    9.2708333333319337E-01 
    9.1666666666649987E-01 
    9.2708333333317949E-01 
    9.1666666666648400E-01 
    9.2708333333316550E-01 
    9.1666666666646823E-01 
    9.2708333333315152E-01 
    9.1666666666645236E-01 
    9.2708333333313753E-01 
    9.1666666666643659E-01 
    9.2708333333312354E-01 
    9.1666666666642072E-01 
    9.2708333333310966E-01 
    9.1666666666640484E-01 
    9.2708333333309567E-01 
    9.1666666666638907E-01 
    9.2708333333308168E-01 
    9.1666666666637320E-01 
    9.2708333333306769E-01 
    9.1666666666635743E-01 
    9.2708333333305371E-01 
    9.1666666666634156E-01 
    9.2708333333303972E-01 
    9.1666666666632568E-01 
    8.9583333333352055E-01 
    8.8541666666686303E-01 
    8.9583333333350101E-01 
    8.8541666666684149E-01 
    8.9583333333348136E-01 
    8.8541666666682006E-01 
    8.9583333333346182E-01 
    8.8541666666679864E-01 
    8.9583333333344228E-01 
    8.8541666666677710E-01 
    8.9583333333342263E-01 
    8.8541666666675567E-01 
    8.9583333333340309E-01 
    8.8541666666673424E-01 
    8.9583333333338344E-01 
    8.8541666666671270E-01 
    8.9583333333336390E-01 
    8.8541666666669128E-01 
    8.9583333333334425E-01 
    8.8541666666666974E-01 
    8.9583333333332471E-01 
    8.8541666666664831E-01 
    8.9583333333330506E-01 
    8.8541666666662688E-01 
    8.9583333333328552E-01 
    8.8541666666660546E-01 
    8.9583333333326598E-01 
    8.8541666666658392E-01 
    8.9583333333324644E-01 
    8.8541666666656238E-01 
    8.9583333333322679E-01 
    8.8541666666654095E-01 
    8.9583333333320725E-01 
    8.8541666666651953E-01 
    8.9583333333318760E-01 
    8.8541666666649810E-01 
    8.9583333333316806E-01 
    8.8541666666647656E-01 
    8.9583333333314841E-01 
    8.8541666666645513E-01 
    8.9583333333312887E-01 
    8.8541666666643359E-01 
    8.9583333333310922E-01 
    8.8541666666641217E-01 
    8.9583333333308968E-01 
    8.8541666666639074E-01 
    8.9583333333307014E-01 
    8.8541666666636920E-01 
    8.9583333333305049E-01 
    8.8541666666634777E-01 
    8.9583333333303095E-01 
    8.8541666666632635E-01 
    8.9583333333301129E-01 
    8.8541666666630481E-01 
    8.9583333333299175E-01 
    8.8541666666628338E-01 
    8.9583333333297221E-01 
    8.8541666666626195E-01 
    8.9583333333295267E-01 
    8.8541666666624042E-01 
    8.9583333333293302E-01 
    8.8541666666621899E-01 
    8.9583333333291337E-01 
    8.8541666666619756E-01 
    8.6458333333358195E-01 
    8.5416666666693475E-01 
    8.6458333333355630E-01 
    8.5416666666690677E-01 
    8.6458333333353066E-01 
    8.5416666666687890E-01 
    8.6458333333350501E-01 
    8.5416666666685093E-01 
    8.6458333333347936E-01 
    8.5416666666682306E-01 
    8.6458333333345383E-01 
    8.5416666666679519E-01 
    8.6458333333342818E-01 
    8.5416666666676733E-01 
    8.6458333333340254E-01 
    8.5416666666673935E-01 
    8.6458333333337689E-01 
    8.5416666666671148E-01 
    8.6458333333335124E-01 
    8.5416666666668362E-01 
    8.6458333333332571E-01 
    8.5416666666665564E-01 
    8.6458333333330006E-01 
    8.5416666666662777E-01 
    8.6458333333327442E-01 
    8.5416666666659991E-01 
    8.6458333333324877E-01 
    8.5416666666657204E-01 
    8.6458333333322313E-01 
    8.5416666666654406E-01 
    8.6458333333319759E-01 
    8.5416666666651619E-01 
    8.6458333333317194E-01 
    8.5416666666648822E-01 
    8.6458333333314630E-01 
    8.5416666666646035E-01 
    8.6458333333312065E-01 
    8.5416666666643248E-01 
    8.6458333333309501E-01 
    8.5416666666640462E-01 
    8.6458333333306936E-01 
    8.5416666666637664E-01 
    8.6458333333304371E-01 
    8.5416666666634877E-01 
    8.6458333333301818E-01 
    8.5416666666632080E-01 
    8.6458333333299253E-01 
    8.5416666666629293E-01 
    8.6458333333296689E-01 
    8.5416666666626506E-01 
    8.6458333333294135E-01 
    8.5416666666623708E-01 
    8.6458333333291570E-01 
    8.5416666666620922E-01 
    8.6458333333289006E-01 
    8.5416666666618135E-01 
    8.6458333333286441E-01 
    8.5416666666615337E-01 
    8.6458333333283877E-01 
    8.5416666666612551E-01 
    8.6458333333281312E-01 
    8.5416666666609764E-01 
    8.6458333333278747E-01 
    8.5416666666606966E-01 
    8.3333333333366910E-01 
    8.2291666666702046E-01 
    8.3333333333363657E-01 
    8.2291666666698560E-01 
    8.3333333333360404E-01 
    8.2291666666695085E-01 
    8.3333333333357151E-01 
    8.2291666666691599E-01 
    8.3333333333353909E-01 
    8.2291666666688135E-01 
    8.3333333333350668E-01 
    8.2291666666684649E-01 
    8.3333333333347415E-01 
    8.2291666666681162E-01 
    8.3333333333344162E-01 
    8.2291666666677687E-01 
    8.3333333333340920E-01 
    8.2291666666674212E-01 
    8.3333333333337667E-01 
    8.2291666666670726E-01 
    8.3333333333334425E-01 
    8.2291666666667262E-01 
    8.3333333333331172E-01 
    8.2291666666663776E-01 
    8.3333333333327930E-01 
    8.2291666666660290E-01 
    8.3333333333324677E-01 
    8.2291666666656815E-01 
    8.3333333333321424E-01 
    8.2291666666653340E-01 
    8.3333333333318182E-01 
    8.2291666666649854E-01 
    8.3333333333314930E-01 
    8.2291666666646379E-01 
    8.3333333333311677E-01 
    8.2291666666642904E-01 
    8.3333333333308435E-01 
    8.2291666666639418E-01 
    8.3333333333305182E-01 
    8.2291666666635943E-01 
    8.3333333333301940E-01 
    8.2291666666632468E-01 
    8.3333333333298687E-01 
    8.2291666666628982E-01 
    8.3333333333295434E-01 
    8.2291666666625507E-01 
    8.3333333333292192E-01 
    8.2291666666622032E-01 
    8.3333333333288950E-01 
    8.2291666666618557E-01 
    8.3333333333285697E-01 
    8.2291666666615071E-01 
    8.3333333333282444E-01 
    8.2291666666611596E-01 
    8.3333333333279203E-01 
    8.2291666666608110E-01 
    8.3333333333275950E-01 
    8.2291666666604635E-01 
    8.3333333333272697E-01 
    8.2291666666601160E-01 
    8.3333333333269455E-01 
    8.2291666666597674E-01 
    8.3333333333266202E-01 
    8.2291666666594199E-01 
    8.0208333333375792E-01 
    7.9166666666710706E-01 
    8.0208333333371862E-01 
    7.9166666666706531E-01 
    8.0208333333367920E-01 
    7.9166666666702368E-01 
    8.0208333333363979E-01 
    7.9166666666698193E-01 
    8.0208333333360038E-01 
    7.9166666666694030E-01 
    8.0208333333356097E-01 
    7.9166666666689856E-01 
    8.0208333333352155E-01 
    7.9166666666685681E-01 
    8.0208333333348214E-01 
    7.9166666666681507E-01 
    8.0208333333344273E-01 
    7.9166666666677332E-01 
    8.0208333333340331E-01 
    7.9166666666673169E-01 
    8.0208333333336401E-01 
    7.9166666666669006E-01 
    8.0208333333332460E-01 
    7.9166666666664831E-01 
    8.0208333333328519E-01 
    7.9166666666660657E-01 
    8.0208333333324577E-01 
    7.9166666666656493E-01 
    8.0208333333320636E-01 
    7.9166666666652319E-01 
    8.0208333333316706E-01 
    7.9166666666648156E-01 
    8.0208333333312753E-01 
    7.9166666666643970E-01 
    8.0208333333308812E-01 
    7.9166666666639807E-01 
    8.0208333333304871E-01 
    7.9166666666635632E-01 
    8.0208333333300941E-01 
    7.9166666666631469E-01 
    8.0208333333296999E-01 
    7.9166666666627294E-01 
    8.0208333333293058E-01 
    7.9166666666623120E-01 
    8.0208333333289117E-01 
    7.9166666666618957E-01 
    8.0208333333285187E-01 
    7.9166666666614793E-01 
    8.0208333333281245E-01 
    7.9166666666610619E-01 
    8.0208333333277304E-01 
    7.9166666666606444E-01 
    8.0208333333273363E-01 
    7.9166666666602270E-01 
    8.0208333333269421E-01 
    7.9166666666598096E-01 
    8.0208333333265480E-01 
    7.9166666666593932E-01 
    8.0208333333261539E-01 
    7.9166666666589758E-01 
    8.0208333333257598E-01 
    7.9166666666585594E-01 
    8.0208333333253656E-01 
    7.9166666666581420E-01 
    7.7083333333384696E-01 
    7.6041666666719365E-01 
    7.7083333333380055E-01 
    7.6041666666714502E-01 
    7.7083333333375426E-01 
    7.6041666666709640E-01 
    7.7083333333370796E-01 
    7.6041666666704777E-01 
    7.7083333333366166E-01 
    7.6041666666699925E-01 
    7.7083333333361537E-01 
    7.6041666666695062E-01 
    7.7083333333356896E-01 
    7.6041666666690189E-01 
    7.7083333333352266E-01 
    7.6041666666685337E-01 
    7.7083333333347637E-01 
    7.6041666666680474E-01 
    7.7083333333343007E-01 
    7.6041666666675611E-01 
    7.7083333333338377E-01 
    7.6041666666670749E-01 
    7.7083333333333748E-01 
    7.6041666666665886E-01 
    7.7083333333329118E-01 
    7.6041666666661023E-01 
    7.7083333333324477E-01 
    7.6041666666656160E-01 
    7.7083333333319848E-01 
    7.6041666666651297E-01 
    7.7083333333315218E-01 
    7.6041666666646435E-01 
    7.7083333333310589E-01 
    7.6041666666641572E-01 
    7.7083333333305948E-01 
    7.6041666666636709E-01 
    7.7083333333301318E-01 
    7.6041666666631846E-01 
    7.7083333333296689E-01 
    7.6041666666626995E-01 
    7.7083333333292059E-01 
    7.6041666666622132E-01 
    7.7083333333287429E-01 
    7.6041666666617269E-01 
    7.7083333333282800E-01 
    7.6041666666612406E-01 
    7.7083333333278170E-01 
    7.6041666666607544E-01 
    7.7083333333273529E-01 
    7.6041666666602670E-01 
    7.7083333333268900E-01 
    7.6041666666597818E-01 
    7.7083333333264270E-01 
    7.6041666666592955E-01 
    7.7083333333259640E-01 
    7.6041666666588092E-01 
    7.7083333333255000E-01 
    7.6041666666583230E-01 
    7.7083333333250381E-01 
    7.6041666666578367E-01 
    7.7083333333245740E-01 
    7.6041666666573504E-01 
    7.7083333333241111E-01 
    7.6041666666568641E-01 
    7.3958333333393589E-01 
    7.2916666666728025E-01 
    7.3958333333388260E-01 
    7.2916666666722474E-01 
    7.3958333333382931E-01 
    7.2916666666716923E-01 
    7.3958333333377624E-01 
    7.2916666666711372E-01 
    7.3958333333372295E-01 
    7.2916666666705821E-01 
    7.3958333333366966E-01 
    7.2916666666700258E-01 
    7.3958333333361637E-01 
    7.2916666666694718E-01 
    7.3958333333356330E-01 
    7.2916666666689156E-01 
    7.3958333333351001E-01 
    7.2916666666683594E-01 
    7.3958333333345672E-01 
    7.2916666666678043E-01 
    7.3958333333340354E-01 
    7.2916666666672492E-01 
    7.3958333333335036E-01 
    7.2916666666666941E-01 
    7.3958333333329707E-01 
    7.2916666666661389E-01 
    7.3958333333324378E-01 
    7.2916666666655838E-01 
    7.3958333333319048E-01 
    7.2916666666650265E-01 
    7.3958333333313730E-01 
    7.2916666666644714E-01 
    7.3958333333308413E-01 
    7.2916666666639163E-01 
    7.3958333333303083E-01 
    7.2916666666633612E-01 
    7.3958333333297765E-01 
    7.2916666666628061E-01 
    7.3958333333292448E-01 
    7.2916666666622509E-01 
    7.3958333333287118E-01 
    7.2916666666616958E-01 
    7.3958333333281812E-01 
    7.2916666666611407E-01 
    7.3958333333276483E-01 
    7.2916666666605856E-01 
    7.3958333333271153E-01 
    7.2916666666600294E-01 
    7.3958333333265824E-01 
    7.2916666666594732E-01 
    7.3958333333260495E-01 
    7.2916666666589181E-01 
    7.3958333333255188E-01 
    7.2916666666583629E-01 
    7.3958333333249859E-01 
    7.2916666666578078E-01 
    7.3958333333244530E-01 
    7.2916666666572527E-01 
    7.3958333333239212E-01 
    7.2916666666566976E-01 
    7.3958333333233894E-01 
    7.2916666666561425E-01 
    7.3958333333228565E-01 
    7.2916666666555874E-01 
    7.0833333333402471E-01 
    6.9791666666736685E-01 
    7.0833333333396453E-01 
    6.9791666666730445E-01 
    7.0833333333390436E-01 
    6.9791666666724195E-01 
    7.0833333333384441E-01 
    6.9791666666717944E-01 
    7.0833333333378423E-01 
    6.9791666666711705E-01 
    7.0833333333372395E-01 
    6.9791666666705454E-01 
    7.0833333333366388E-01 
    6.9791666666699226E-01 
    7.0833333333360371E-01 
    6.9791666666692964E-01 
    7.0833333333354354E-01 
    6.9791666666686725E-01 
    7.0833333333348336E-01 
    6.9791666666680485E-01 
    7.0833333333342319E-01 
    6.9791666666674235E-01 
    7.0833333333336324E-01 
    6.9791666666667984E-01 
    7.0833333333330295E-01 
    6.9791666666661745E-01 
    7.0833333333324289E-01 
    6.9791666666655505E-01 
    7.0833333333318271E-01 
    6.9791666666649244E-01 
    7.0833333333312232E-01 
    6.9791666666643004E-01 
    7.0833333333306236E-01 
    6.9791666666636765E-01 
    7.0833333333300219E-01 
    6.9791666666630525E-01 
    7.0833333333294202E-01 
    6.9791666666624286E-01 
    7.0833333333288184E-01 
    6.9791666666618024E-01 
    7.0833333333282167E-01 
    6.9791666666611785E-01 
    7.0833333333276172E-01 
    6.9791666666605545E-01 
    7.0833333333270154E-01 
    6.9791666666599295E-01 
    7.0833333333264137E-01 
    6.9791666666593044E-01 
    7.0833333333258119E-01 
    6.9791666666586805E-01 
    7.0833333333252102E-01 
    6.9791666666580565E-01 
    7.0833333333246085E-01 
    6.9791666666574304E-01 
    7.0833333333240067E-01 
    6.9791666666568064E-01 
    7.0833333333234050E-01 
    6.9791666666561825E-01 
    7.0833333333228055E-01 
    6.9791666666555585E-01 
    7.0833333333222037E-01 
    6.9791666666549335E-01 
    7.0833333333216020E-01 
    6.9791666666543084E-01 
    6.7708333333411375E-01 
    6.6666666666745344E-01 
    6.7708333333404647E-01 
    6.6666666666738417E-01 
    6.7708333333397952E-01 
    6.6666666666731467E-01 
    6.7708333333391235E-01 
    6.6666666666724539E-01 
    6.7708333333384529E-01 
    6.6666666666717589E-01 
    6.7708333333377824E-01 
    6.6666666666710661E-01 
    6.7708333333371118E-01 
    6.6666666666703733E-01 
    6.7708333333364434E-01 
    6.6666666666696794E-01 
    6.7708333333357718E-01 
    6.6666666666689856E-01 
    6.7708333333351001E-01 
    6.6666666666682928E-01 
    6.7708333333344295E-01 
    6.6666666666675978E-01 
    6.7708333333337589E-01 
    6.6666666666669050E-01 
    6.7708333333330883E-01 
    6.6666666666662100E-01 
    6.7708333333324178E-01 
    6.6666666666655172E-01 
    6.7708333333317472E-01 
    6.6666666666648244E-01 
    6.7708333333310766E-01 
    6.6666666666641294E-01 
    6.7708333333304060E-01 
    6.6666666666634367E-01 
    6.7708333333297355E-01 
    6.6666666666627417E-01 
    6.7708333333290649E-01 
    6.6666666666620489E-01 
    6.7708333333283943E-01 
    6.6666666666613561E-01 
    6.7708333333277237E-01 
    6.6666666666606611E-01 
    6.7708333333270532E-01 
    6.6666666666599683E-01 
    6.7708333333263826E-01 
    6.6666666666592733E-01 
    6.7708333333257120E-01 
    6.6666666666585805E-01 
    6.7708333333250414E-01 
    6.6666666666578878E-01 
    6.7708333333243709E-01 
    6.6666666666571928E-01 
    6.7708333333237003E-01 
    6.6666666666565000E-01 
    6.7708333333230297E-01 
    6.6666666666558072E-01 
    6.7708333333223591E-01 
    6.6666666666551122E-01 
    6.7708333333216886E-01 
    6.6666666666544194E-01 
    6.7708333333210180E-01 
    6.6666666666537244E-01 
    6.7708333333203474E-01 
    6.6666666666530316E-01 
    6.4583333333420256E-01 
    6.3541666666754004E-01 
    6.4583333333412862E-01 
    6.3541666666746388E-01 
    6.4583333333405468E-01 
    6.3541666666738750E-01 
    6.4583333333398052E-01 