# vtk DataFile Version 2.0
Pressure Field Data 
ASCII 
DATASET UNSTRUCTURED_GRID 

POINTS 25 float 

    0.0000000000000000E+00     0.0000000000000000E+00     0.0000000000000000E+00 
    1.0000000000000000E+00     0.0000000000000000E+00     0.0000000000000000E+00 
    1.0000000000000000E+00     1.0000000000000000E+00     0.0000000000000000E+00 
    0.0000000000000000E+00     1.0000000000000000E+00     0.0000000000000000E+00 
    2.4999999999941089E-01     0.0000000000000000E+00     0.0000000000000000E+00 
    4.9999999999869210E-01     0.0000000000000000E+00     0.0000000000000000E+00 
    7.4999999999934064E-01     0.0000000000000000E+00     0.0000000000000000E+00 
    1.0000000000000000E+00     2.4999999999941089E-01     0.0000000000000000E+00 
    1.0000000000000000E+00     4.9999999999869210E-01     0.0000000000000000E+00 
    1.0000000000000000E+00     7.4999999999934064E-01     0.0000000000000000E+00 
    7.5000000000034706E-01     1.0000000000000000E+00     0.0000000000000000E+00 
    5.0000000000205946E-01     1.0000000000000000E+00     0.0000000000000000E+00 
    2.5000000000104050E-01     1.0000000000000000E+00     0.0000000000000000E+00 
    0.0000000000000000E+00     7.5000000000034706E-01     0.0000000000000000E+00 
    0.0000000000000000E+00     5.0000000000205946E-01     0.0000000000000000E+00 
    0.0000000000000000E+00     2.5000000000104050E-01     0.0000000000000000E+00 
    2.4999999999981831E-01     2.5000000000063310E-01     0.0000000000000000E+00 
    2.5000000000022571E-01     5.0000000000121769E-01     0.0000000000000000E+00 
    2.5000000000063322E-01     7.5000000000009537E-01     0.0000000000000000E+00 
    4.9999999999953398E-01     2.5000000000022571E-01     0.0000000000000000E+00 
    5.0000000000037581E-01     5.0000000000037581E-01     0.0000000000000000E+00 
    5.0000000000121769E-01     7.4999999999984390E-01     0.0000000000000000E+00 
    7.4999999999959222E-01     2.4999999999981831E-01     0.0000000000000000E+00 
    7.4999999999984390E-01     4.9999999999953398E-01     0.0000000000000000E+00 
    7.5000000000009526E-01     7.4999999999959210E-01     0.0000000000000000E+00 

CELLS 32 128 

3 0 4 15 
3 15 4 16 
3 15 16 14 
3 14 16 17 
3 14 17 13 
3 13 17 18 
3 13 18 3 
3 3 18 12 
3 4 5 16 
3 16 5 19 
3 16 19 17 
3 17 19 20 
3 17 20 18 
3 18 20 21 
3 18 21 12 
3 12 21 11 
3 5 6 19 
3 19 6 22 
3 19 22 20 
3 20 22 23 
3 20 23 21 
3 21 23 24 
3 21 24 11 
3 11 24 10 
3 6 1 22 
3 22 1 7 
3 22 7 23 
3 23 7 8 
3 23 8 24 
3 24 8 9 
3 24 9 10 
3 10 9 2 

CELL_TYPES 32 

5 
5 
5 
5 
5 
5 
5 
5 
5 
5 
5 
5 
5 
5 
5 
5 
5 
5 
5 
5 
5 
5 
5 
5 
5 
5 
5 
5 
5 
5 
5 
5 

CELL_DATA 32 
SCALARS Pressure float 1 
LOOKUP_TABLE default 

    8.3333333333680160E-01 
    1.6666666666722452E+00 
    3.3333333333457764E+00 
    4.1666666666797010E+00 
    5.8333333333454140E-01 
    6.6666666666721996E-01 
    8.3333333333348081E-01 
    9.1666666666669849E-01 
    8.3333333333544368E-01 
    1.6666666666695296E+00 
    3.3333333333402555E+00 
    4.1666666666727306E+00 
    5.8333333333389625E-01 
    6.6666666666677177E-01 
    8.3333333333331305E-01 
    9.1666666666661456E-01 
    8.3333333333408577E-01 
    1.6666666666668131E+00 
    3.3333333333347319E+00 
    4.1666666666657601E+00 
    5.8333333333325121E-01 
    6.6666666666632335E-01 
    8.3333333333314530E-01 
    9.1666666666653074E-01 
    8.3333333333272763E-01 
    1.6666666666640972E+00 
    3.3333333333292110E+00 
    4.1666666666587897E+00 
    5.8333333333260606E-01 
    6.6666666666587504E-01 
    8.3333333333297765E-01 
    9.1666666666644681E-01 

