# vtk DataFile Version 2.0
Pressure Field Data 
ASCII 
DATASET UNSTRUCTURED_GRID 

POINTS 25 float 

    0.0000000000000000E+00     0.0000000000000000E+00     0.0000000000000000E+00 
    1.0000000000000000E+00     0.0000000000000000E+00     0.0000000000000000E+00 
    1.0000000000000000E+00     1.0000000000000000E+00     0.0000000000000000E+00 
    0.0000000000000000E+00     1.0000000000000000E+00     0.0000000000000000E+00 
    2.4999999999941089E-01     0.0000000000000000E+00     0.0000000000000000E+00 
    4.9999999999869210E-01     0.0000000000000000E+00     0.0000000000000000E+00 
    7.4999999999934064E-01     0.0000000000000000E+00     0.0000000000000000E+00 
    1.0000000000000000E+00     2.4999999999941089E-01     0.0000000000000000E+00 
    1.0000000000000000E+00     4.9999999999869210E-01     0.0000000000000000E+00 
    1.0000000000000000E+00     7.4999999999934064E-01     0.0000000000000000E+00 
    7.5000000000034706E-01     1.0000000000000000E+00     0.0000000000000000E+00 
    5.0000000000205946E-01     1.0000000000000000E+00     0.0000000000000000E+00 
    2.5000000000104050E-01     1.0000000000000000E+00     0.0000000000000000E+00 
    0.0000000000000000E+00     7.5000000000034706E-01     0.0000000000000000E+00 
    0.0000000000000000E+00     5.0000000000205946E-01     0.0000000000000000E+00 
    0.0000000000000000E+00     2.5000000000104050E-01     0.0000000000000000E+00 
    2.4999999999981831E-01     2.5000000000063310E-01     0.0000000000000000E+00 
    2.5000000000022571E-01     5.0000000000121769E-01     0.0000000000000000E+00 
    2.5000000000063322E-01     7.5000000000009537E-01     0.0000000000000000E+00 
    4.9999999999953398E-01     2.5000000000022571E-01     0.0000000000000000E+00 
    5.0000000000037581E-01     5.0000000000037581E-01     0.0000000000000000E+00 
    5.0000000000121769E-01     7.4999999999984390E-01     0.0000000000000000E+00 
    7.4999999999959222E-01     2.4999999999981831E-01     0.0000000000000000E+00 
    7.4999999999984390E-01     4.9999999999953398E-01     0.0000000000000000E+00 
    7.5000000000009526E-01     7.4999999999959210E-01     0.0000000000000000E+00 

CELLS 32 128 

3 0 4 15 
3 15 4 16 
3 15 16 14 
3 14 16 17 
3 14 17 13 
3 13 17 18 
3 13 18 3 
3 3 18 12 
3 4 5 16 
3 16 5 19 
3 16 19 17 
3 17 19 20 
3 17 20 18 
3 18 20 21 
3 18 21 12 
3 12 21 11 
3 5 6 19 
3 19 6 22 
3 19 22 20 
3 20 22 23 
3 20 23 21 
3 21 23 24 
3 21 24 11 
3 11 24 10 
3 6 1 22 
3 22 1 7 
3 22 7 23 
3 23 7 8 
3 23 8 24 
3 24 8 9 
3 24 9 10 
3 10 9 2 

CELL_TYPES 32 

5 
5 
5 
5 
5 
5 
5 
5 
5 
5 
5 
5 
5 
5 
5 
5 
5 
5 
5 
5 
5 
5 
5 
5 
5 
5 
5 
5 
5 
5 
5 
5 

CELL_DATA 32 
SCALARS Pressure float 1 
LOOKUP_TABLE default 

    2.1225161857856851E+00 
    2.6126824152932531E+00 
    2.6159885287409672E+00 
    2.0840517775600120E+00 
    2.8241067201524892E+00 
    2.1489920374522407E+00 
    1.1241622721219995E+00 
    1.0693286363277945E+00 
    3.8219837027841703E+00 
    3.5101368611061585E+00 
    2.3652333284961364E+00 
    1.9055456053398780E+00 
    1.6033063713347542E+00 
    1.4067549883541541E+00 
    1.2690731448627479E+00 
    1.1894076409136298E+00 
    4.2423097252812694E+00 
    3.6385770717396397E+00 
    2.5625942609413022E+00 
    2.1505688878600604E+00 
    1.3859816987685454E+00 
    1.3337918054621249E+00 
    1.2246667315632929E+00 
    1.1823908973943917E+00 
    3.6315652087322392E+00 
    2.7526486673537880E+00 
    3.0538919369391833E+00 
    3.3124949470388203E+00 
    1.5798964187278237E+00 
    1.6542183024526529E+00 
    1.3231350215414652E+00 
    1.0938643763628191E+00 

