# vtk DataFile Version 2.0
Pressure Field Data 
ASCII 
DATASET UNSTRUCTURED_GRID 

POINTS 8259 float 

    0.0000000000000000E+00     0.0000000000000000E+00     0.0000000000000000E+00 
    5.0000000000000000E-01     0.0000000000000000E+00     0.0000000000000000E+00 
    1.0000000000000000E+00     0.0000000000000000E+00     0.0000000000000000E+00 
    1.0000000000000000E+00     1.0000000000000000E+00     0.0000000000000000E+00 
    5.0000000000000000E-01     1.0000000000000000E+00     0.0000000000000000E+00 
    0.0000000000000000E+00     1.0000000000000000E+00     0.0000000000000000E+00 
    1.5624999999970940E-02     0.0000000000000000E+00     0.0000000000000000E+00 
    3.1249999999936530E-02     0.0000000000000000E+00     0.0000000000000000E+00 
    4.6874999999911612E-02     0.0000000000000000E+00     0.0000000000000000E+00 
    6.2499999999886688E-02     0.0000000000000000E+00     0.0000000000000000E+00 
    7.8124999999841765E-02     0.0000000000000000E+00     0.0000000000000000E+00 
    9.3749999999796829E-02     0.0000000000000000E+00     0.0000000000000000E+00 
    1.0937499999975120E-01     0.0000000000000000E+00     0.0000000000000000E+00 
    1.2499999999970560E-01     0.0000000000000000E+00     0.0000000000000000E+00 
    1.4062499999966011E-01     0.0000000000000000E+00     0.0000000000000000E+00 
    1.5624999999961450E-01     0.0000000000000000E+00     0.0000000000000000E+00 
    1.7187499999956890E-01     0.0000000000000000E+00     0.0000000000000000E+00 
    1.8749999999952341E-01     0.0000000000000000E+00     0.0000000000000000E+00 
    2.0312499999947781E-01     0.0000000000000000E+00     0.0000000000000000E+00 
    2.1874999999943229E-01     0.0000000000000000E+00     0.0000000000000000E+00 
    2.3437499999938941E-01     0.0000000000000000E+00     0.0000000000000000E+00 
    2.4999999999934661E-01     0.0000000000000000E+00     0.0000000000000000E+00 
    2.6562499999938499E-01     0.0000000000000000E+00     0.0000000000000000E+00 
    2.8124999999942352E-01     0.0000000000000000E+00     0.0000000000000000E+00 
    2.9687499999946471E-01     0.0000000000000000E+00     0.0000000000000000E+00 
    3.1249999999950578E-01     0.0000000000000000E+00     0.0000000000000000E+00 
    3.2812499999954697E-01     0.0000000000000000E+00     0.0000000000000000E+00 
    3.4374999999958822E-01     0.0000000000000000E+00     0.0000000000000000E+00 
    3.5937499999962941E-01     0.0000000000000000E+00     0.0000000000000000E+00 
    3.7499999999967060E-01     0.0000000000000000E+00     0.0000000000000000E+00 
    3.9062499999971179E-01     0.0000000000000000E+00     0.0000000000000000E+00 
    4.0624999999975292E-01     0.0000000000000000E+00     0.0000000000000000E+00 
    4.2187499999979411E-01     0.0000000000000000E+00     0.0000000000000000E+00 
    4.3749999999983530E-01     0.0000000000000000E+00     0.0000000000000000E+00 
    4.5312499999987649E-01     0.0000000000000000E+00     0.0000000000000000E+00 
    4.6874999999991768E-01     0.0000000000000000E+00     0.0000000000000000E+00 
    4.8437499999995881E-01     0.0000000000000000E+00     0.0000000000000000E+00 
    5.1562500000000289E-01     0.0000000000000000E+00     0.0000000000000000E+00 
    5.3125000000000000E-01     0.0000000000000000E+00     0.0000000000000000E+00 
    5.4687500000001565E-01     0.0000000000000000E+00     0.0000000000000000E+00 
    5.6249999999999989E-01     0.0000000000000000E+00     0.0000000000000000E+00 
    5.7812499999996880E-01     0.0000000000000000E+00     0.0000000000000000E+00 
    5.9374999999999978E-01     0.0000000000000000E+00     0.0000000000000000E+00 
    6.0937500000000666E-01     0.0000000000000000E+00     0.0000000000000000E+00 
    6.2499999999999978E-01     0.0000000000000000E+00     0.0000000000000000E+00 
    6.4062499999998734E-01     0.0000000000000000E+00     0.0000000000000000E+00 
    6.5624999999999978E-01     0.0000000000000000E+00     0.0000000000000000E+00 
    6.7187499999999822E-01     0.0000000000000000E+00     0.0000000000000000E+00 
    6.8749999999999978E-01     0.0000000000000000E+00     0.0000000000000000E+00 
    7.0312499999999978E-01     0.0000000000000000E+00     0.0000000000000000E+00 
    7.1874999999999978E-01     0.0000000000000000E+00     0.0000000000000000E+00 
    7.3437499999999645E-01     0.0000000000000000E+00     0.0000000000000000E+00 
    7.4999999999999978E-01     0.0000000000000000E+00     0.0000000000000000E+00 
    7.6562499999996581E-01     0.0000000000000000E+00     0.0000000000000000E+00 
    7.8124999999999978E-01     0.0000000000000000E+00     0.0000000000000000E+00 
    7.9687500000006262E-01     0.0000000000000000E+00     0.0000000000000000E+00 
    8.1249999999999989E-01     0.0000000000000000E+00     0.0000000000000000E+00 
    8.2812499999998379E-01     0.0000000000000000E+00     0.0000000000000000E+00 
    8.4374999999999989E-01     0.0000000000000000E+00     0.0000000000000000E+00 
    8.5937500000000644E-01     0.0000000000000000E+00     0.0000000000000000E+00 
    8.7499999999999989E-01     0.0000000000000000E+00     0.0000000000000000E+00 
    8.9062499999999778E-01     0.0000000000000000E+00     0.0000000000000000E+00 
    9.0625000000000000E-01     0.0000000000000000E+00     0.0000000000000000E+00 
    9.2187500000000644E-01     0.0000000000000000E+00     0.0000000000000000E+00 
    9.3750000000000000E-01     0.0000000000000000E+00     0.0000000000000000E+00 
    9.5312499999997879E-01     0.0000000000000000E+00     0.0000000000000000E+00 
    9.6875000000000000E-01     0.0000000000000000E+00     0.0000000000000000E+00 
    9.8437499999997480E-01     0.0000000000000000E+00     0.0000000000000000E+00 
    1.0000000000000000E+00     1.5624999999970180E-02     0.0000000000000000E+00 
    1.0000000000000000E+00     3.1249999999940509E-02     0.0000000000000000E+00 
    1.0000000000000000E+00     4.6874999999906783E-02     0.0000000000000000E+00 
    1.0000000000000000E+00     6.2499999999873053E-02     0.0000000000000000E+00 
    1.0000000000000000E+00     7.8124999999848468E-02     0.0000000000000000E+00 
    1.0000000000000000E+00     9.3749999999823891E-02     0.0000000000000000E+00 
    1.0000000000000000E+00     1.0937499999979861E-01     0.0000000000000000E+00 
    1.0000000000000000E+00     1.2499999999977340E-01     0.0000000000000000E+00 
    1.0000000000000000E+00     1.4062499999972911E-01     0.0000000000000000E+00 
    1.0000000000000000E+00     1.5624999999968489E-01     0.0000000000000000E+00 
    1.0000000000000000E+00     1.7187499999963929E-01     0.0000000000000000E+00 
    1.0000000000000000E+00     1.8749999999959369E-01     0.0000000000000000E+00 
    1.0000000000000000E+00     2.0312499999954800E-01     0.0000000000000000E+00 
    1.0000000000000000E+00     2.1874999999950240E-01     0.0000000000000000E+00 
    1.0000000000000000E+00     2.3437499999945680E-01     0.0000000000000000E+00 
    1.0000000000000000E+00     2.4999999999941119E-01     0.0000000000000000E+00 
    1.0000000000000000E+00     2.6562499999936562E-01     0.0000000000000000E+00 
    1.0000000000000000E+00     2.8124999999931999E-01     0.0000000000000000E+00 
    1.0000000000000000E+00     2.9687499999927452E-01     0.0000000000000000E+00 
    1.0000000000000000E+00     3.1249999999922901E-01     0.0000000000000000E+00 
    1.0000000000000000E+00     3.2812499999918338E-01     0.0000000000000000E+00 
    1.0000000000000000E+00     3.4374999999913791E-01     0.0000000000000000E+00 
    1.0000000000000000E+00     3.5937499999909228E-01     0.0000000000000000E+00 
    1.0000000000000000E+00     3.7499999999904682E-01     0.0000000000000000E+00 
    1.0000000000000000E+00     3.9062499999900119E-01     0.0000000000000000E+00 
    1.0000000000000000E+00     4.0624999999895561E-01     0.0000000000000000E+00 
    1.0000000000000000E+00     4.2187499999891009E-01     0.0000000000000000E+00 
    1.0000000000000000E+00     4.3749999999886452E-01     0.0000000000000000E+00 
    1.0000000000000000E+00     4.5312499999881900E-01     0.0000000000000000E+00 
    1.0000000000000000E+00     4.6874999999877343E-01     0.0000000000000000E+00 
    1.0000000000000000E+00     4.8437499999873318E-01     0.0000000000000000E+00 
    1.0000000000000000E+00     4.9999999999869310E-01     0.0000000000000000E+00 
    1.0000000000000000E+00     5.1562499999872891E-01     0.0000000000000000E+00 
    1.0000000000000000E+00     5.3124999999876465E-01     0.0000000000000000E+00 
    1.0000000000000000E+00     5.4687499999880584E-01     0.0000000000000000E+00 
    1.0000000000000000E+00     5.6249999999884692E-01     0.0000000000000000E+00 
    1.0000000000000000E+00     5.7812499999888822E-01     0.0000000000000000E+00 
    1.0000000000000000E+00     5.9374999999892941E-01     0.0000000000000000E+00 
    1.0000000000000000E+00     6.0937499999897060E-01     0.0000000000000000E+00 
    1.0000000000000000E+00     6.2499999999901168E-01     0.0000000000000000E+00 
    1.0000000000000000E+00     6.4062499999905287E-01     0.0000000000000000E+00 
    1.0000000000000000E+00     6.5624999999909406E-01     0.0000000000000000E+00 
    1.0000000000000000E+00     6.7187499999913525E-01     0.0000000000000000E+00 
    1.0000000000000000E+00     6.8749999999917644E-01     0.0000000000000000E+00 
    1.0000000000000000E+00     7.0312499999921751E-01     0.0000000000000000E+00 
    1.0000000000000000E+00     7.1874999999925870E-01     0.0000000000000000E+00 
    1.0000000000000000E+00     7.3437499999930000E-01     0.0000000000000000E+00 
    1.0000000000000000E+00     7.4999999999934119E-01     0.0000000000000000E+00 
    1.0000000000000000E+00     7.6562499999938238E-01     0.0000000000000000E+00 
    1.0000000000000000E+00     7.8124999999942357E-01     0.0000000000000000E+00 
    1.0000000000000000E+00     7.9687499999946465E-01     0.0000000000000000E+00 
    1.0000000000000000E+00     8.1249999999950584E-01     0.0000000000000000E+00 
[...]
CELL_DATA 8130 
SCALARS Pressure float 1 
LOOKUP_TABLE default 

    4.4890874285215432E+00 
    4.3810738401527116E+00 
    4.3114282614293913E+00 
    4.0328077078288906E+00 
    4.1516956018188793E+00 
    4.2220518212083453E+00 
    2.1084700955036451E+00 
    2.2189108956147261E+00 
    2.2854457740570298E+00 
    2.7704175143194241E+00 
    2.6172492438830366E+00 
    2.7765490599342089E+00 
    2.4485330743107547E+00 
    2.5539886634536746E+00 
    2.6038008422262529E+00 
    2.8763480719326684E+00 
    2.7589468904760412E+00 
    2.7070251594073431E+00 
    4.7259905033148817E+00 
    4.7164138483619782E+00 
    4.8534294770472384E+00 
    5.6638796654246972E+00 
    5.4985110714990402E+00 
    5.5586773613090479E+00 
    2.3361879306477626E+00 
    2.5016520491587722E+00 
    2.4419632166500604E+00 
    4.6804827593822518E+00 
    4.6066075287200112E+00 
    4.5171456028212571E+00 
    3.3193101408350412E+00 
    3.3926518522831945E+00 
    3.4825180880822333E+00 
    4.5893647251312499E+00 
    4.4779167355578897E+00 
    4.5845537312308551E+00 
    4.3342994118991225E+00 
    4.3918401867051662E+00 
    4.4596258064105587E+00 
    4.6765953203401383E+00 
    4.5864171669750746E+00 
    4.5165018064345883E+00 
    5.0748797558275083E+00 
    4.9036028960589491E+00 
    4.9839299394131400E+00 
    4.6335648734194637E+00 
    4.8234054391817027E+00 
    4.7460183522616601E+00 
    6.1636133241924451E+00 
    6.1912772152218212E+00 
    6.3369603877927752E+00 
    6.8031920183700798E+00 
    6.9717250545436622E+00 
    6.8365789554245495E+00 
    2.8658672179335531E+00 
    2.9491436868996379E+00 
    2.8050942736237459E+00 
    2.9274817826248873E+00 
    2.9283323466251039E+00 
    3.0524536827446740E+00 
    2.5707602324393108E+00 
    2.4334559581103332E+00 
    2.4778576113734094E+00 
    7.7518490399454469E+00 
    7.6128180035778454E+00 
    7.6182219597640426E+00 
    6.9408283040190533E+00 
    6.8219076791116633E+00 
    6.7902220198641325E+00 
    2.9878520056972313E+00 
    3.1318184794212161E+00 
    3.0657577835072209E+00 
    5.3753707740455048E-01 
    7.2916955993806609E-01 
    6.5210360093516384E-01 
    6.7253552897132405E+00 
    6.6838278604367387E+00 
    6.5495470821963568E+00 
    6.4463639913375435E+00 
    6.4466674708119260E+00 
    6.5853131227795476E+00 
    2.2431520686463671E+00 
    2.3586356765757102E+00 
    2.3218714707000507E+00 
    6.4532139731506160E+00 
    6.3218080024372556E+00 
    6.2922824795300301E+00 
    6.0120636934983125E+00 
    6.1319328255079295E+00 
    6.1656807369321767E+00 
    3.4369467620961176E+00 
    3.5826246921156906E+00 
    3.4346216843968502E+00 
    3.6542364096083522E+00 
    3.5653466607465201E+00 
    3.5290272668846328E+00 
    3.3166505991385651E+00 
    3.4061436305674366E+00 
    3.4430607469674386E+00 
    4.5275477986226722E+00 
    4.6660694567747658E+00 
    4.5305222971476633E+00 
    5.7433744622104097E+00 
    5.6457380092480980E+00 
    5.5755968264243938E+00 
    6.1916613627892056E+00 
    6.3334480274200908E+00 
    6.3218933507098019E+00 
    8.5297784728716275E-01 
    1.0646129194008978E+00 
    9.7197003301641760E-01 
    6.2111354495560702E+00 
    6.0383907915966901E+00 
    6.0330980496251625E+00 
    6.6325873021746409E+00 
    6.4835635778143228E+00 
    6.4423681121061414E+00 
    1.4376820653791440E+00 
    1.3391555476881316E+00 
    1.2651131798860333E+00 
    8.9953603644126223E-01 
    7.2246552311284640E-01 
    7.9057529435938734E-01 
    6.4632525072670619E+00 
    6.5697082108785425E+00 
    6.6396107058979057E+00 
    4.5563785951276010E+00 
    4.4112833462005820E+00 
    4.5454055415371126E+00 
    3.4807019289602183E+00 
    3.4968968984881852E+00 
    3.6403364273899497E+00 
    6.1067971060106148E+00 
    6.2344119403095171E+00 
    6.0926606611618253E+00 
    6.0863471097770425E+00 
    6.2415753404258529E+00 
    6.2488387893191017E+00 
    1.5636470898107067E+00 
    1.6143569296484028E+00 
    1.4687438766933105E+00 
    3.0839123935050425E+00 
    3.2507700900109375E+00 
    3.1008189554828260E+00 
    3.3207809377550923E+00 
    3.1854483707331442E+00 
    3.3340853641869828E+00 
    6.0210696885976285E+00 
    6.1847840497953728E+00 
    6.0570463252308437E+00 
    3.4223370485859870E+00 
    3.3690018120616751E+00 
    3.5424108957571701E+00 
    3.3857615762024031E+00 
    3.3750579671628964E+00 
    3.2437433670247175E+00 
    3.5142672261010777E+00 
    3.6103321393572561E+00 
    3.5117893218700211E+00 
    6.2244587815920056E+00 
    6.3951190325973188E+00 
    6.3580320423059806E+00 
    6.8478927736558788E+00 
    6.9603696926574612E+00 
    7.0145620489711247E+00 
    5.3460655666472867E+00 
    5.2324479342441821E+00 
    5.4015821855601427E+00 
    2.6541364167077761E+00 
    2.7677450910315757E+00 
    2.5991472940570013E+00 
    6.6973171470549122E+00 
    6.5228645830866512E+00 
    6.6087346186722131E+00 
    6.5993463720770356E+00 
    6.5164603693036893E+00 
    6.4491766186397754E+00 
    9.8349867008438696E-01 
    1.1055963905976098E+00 
    1.1809885390648416E+00 
    4.2769292772609530E-01 
    6.2240506338984758E-01 
    5.6261215154630240E-01 
    1.6277403245118638E+00 
    1.5065847245159274E+00 
    1.7100918148392952E+00 
    9.2296882583815798E-01 
    1.0260474692958055E+00 
    8.2633900334310195E-01 
    3.0049751015750159E+00 
    3.0756419894586444E+00 
    2.8888932971398704E+00 
    2.8902351039040157E+00 
    2.8468948732387984E+00 
    3.0336413280769992E+00 
    3.7986545252776147E+00 
    3.9163082208943956E+00 
    3.9185128683841266E+00 
    6.2952489429181622E+00 
    6.1660615320556253E+00 
    6.2930579176771788E+00 
    4.9695020771322591E+00 
    5.1148450035111388E+00 
    5.1081061305253472E+00 
    5.4409999187630564E+00 
    5.2772265049676808E+00 
    5.2810082379112036E+00 
    9.8194771813153936E-01 
    1.1856960463674802E+00 
    1.1141779835957712E+00 
    4.0806623885441012E-01 
    5.2243457968072227E-01 
    6.0923795648125711E-01 
    5.3676676671220589E+00 
    5.4425641311246693E+00 
    5.5144898885908331E+00 
    1.0248820483036496E+00 
    9.1364929836276831E-01 
    1.0556496633601244E+00 
    2.4159267048613460E+00 
    2.5704379223214406E+00 
    2.4638691346000616E+00 
    1.6750731187821390E+00 
    1.6937718373437507E+00 
    1.8031187514967180E+00 
    7.3650341807032245E+00 
    7.4816227725067348E+00 
    7.4703029529910232E+00 
    6.5637645633337005E+00 
    6.6511162323610904E+00 
    6.6883077387815622E+00 
    9.3509085181389950E-01 
    9.1784906705119107E-01 
    1.1060540106436325E+00 
    2.7123469805573386E-01 
    2.6506990535081915E-01 
    4.4472722139941551E-01 
    4.1011427799031166E+00 
    4.2605868593021210E+00 
    4.2592352667097124E+00 
    3.8891447534662329E+00 
    3.7337469028659354E+00 
    3.7281792027911829E+00 
    7.2859129088155212E+00 
    7.1728407368466796E+00 
    7.1278932048655097E+00 
    2.2788008916558549E+00 
    2.3252852933151651E+00 
    2.1784829821205385E+00 
    1.5441053564848641E+00 
    1.4297961610599139E+00 
    1.5610786840357183E+00 
    6.2310845450783656E+00 
    6.3196783999859942E+00 
    6.3819923323271777E+00 
    5.4085465250864162E-01 
    6.7104559582991996E-01 
    7.3856423451914199E-01 
    3.7251459833800658E+00 
    3.7136478551548149E+00 
    3.8448911014149809E+00 
    6.7583977657617718E+00 
    6.7482811477013254E+00 
    6.8865176698505541E+00 
    1.2418584427906736E+00 
    1.2529681725317441E+00 
    1.1133952196879124E+00 
    5.7876324043218697E+00 
    5.9356991011515170E+00 
    5.8069374625734147E+00 
    2.2131198115169668E+00 
    2.0640344323675279E+00 
    2.1951119471934080E+00 
    4.0273422667091854E+00 
    4.1783230254848984E+00 
    4.0232847717138425E+00 
    3.9709655199276885E+00 
    3.8188336650299717E+00 
    3.9725656227268362E+00 
    6.1736305120992867E+00 
    5.9836270218493084E+00 
    6.1118805503049245E+00 
    6.9418196896675042E+00 
    6.7961981015942516E+00 
    6.8425734470899346E+00 
    4.2885799160034601E+00 
    4.4502878245896955E+00 
    4.3137967519700187E+00 
    6.9958337494945271E+00 
    7.0471973502574841E+00 
    7.1460464190539836E+00 
    4.3045818017385509E+00 
    4.1207550252415128E+00 
    4.1995105659110541E+00 
    3.9071280748973805E+00 
    4.0550484488244765E+00 
    3.9768229873315182E+00 
    3.7193384644696796E+00 
    3.5329761633654218E+00 
    3.6846890531892043E+00 
    3.5307205158696531E-01 
    5.2403026427212607E-01 
    4.9144903341127755E-01 
    9.8246320493917760E-01 
    1.1138524016882192E+00 
    1.1672722970305360E+00 
    2.5745124256769887E+00 
    2.6140486043328277E+00 
    2.4602847193380737E+00 
    6.1473280738214813E+00 
    6.3052203193913297E+00 
    6.2560280516392917E+00 
    6.5507388770295236E+00 
    6.3985858785809713E+00 
    6.4518499119718715E+00 
    5.7349605626985261E+00 
    5.6566303803196352E+00 
    5.5781396402837125E+00 
    5.3358369468812992E+00 
    5.4367739103510120E+00 
    5.5135635941726147E+00 
    4.0201343885374454E+00 
    4.2082005020071271E+00 
    4.1107242851570467E+00 
    3.3279555665069909E+00 
    3.4028746130214356E+00 
    3.2203004573180727E+00 
    6.1625716986191277E+00 
    6.0978426579555336E+00 
    5.9853121828217830E+00 
    6.4610700366231022E+00 
    6.6361020309703642E+00 
    6.5614569475815729E+00 
    6.9341333181159674E+00 
    6.9505237573777432E+00 
    6.8124811979979798E+00 
    1.7355612242872270E-01 
    3.3009913087964809E-01 
    3.1029817706574636E-01 
    6.8368684815519707E+00 
    6.7170088736833549E+00 
    6.6792705047955838E+00 
    8.9322433484537750E-02 
    2.2793595407707037E-01 
    9.5393165665295793E-02 
    7.9103323192511050E+00 
    7.7703085430763883E+00 
    7.9039607326656531E+00 
    7.8261134088529500E+00 
    7.6692814096342339E+00 
    7.6879591601541337E+00 
    1.0648584839417152E+00 
    1.0488387718849908E+00 
    1.1849889327643626E+00 
    1.1619569477999561E+00 
    1.2795353728809986E+00 
    1.3191664404650614E+00 
    1.7539970979842077E+00 
    1.5875854566773899E+00 
    1.5999092587265342E+00 
    1.2556635703786745E+00 
    1.4237885209674646E+00 
    1.4126804534823911E+00 
    3.6518952618858056E+00 
    3.5104543844289062E+00 
    3.4688364137201431E+00 
    3.1872621669600436E+00 
    3.3003615394483417E+00 
    3.3526973842108920E+00 
    2.0794832177707727E+00 
    2.2585943530113104E+00 
    2.1377584176155962E+00 
    1.9394952567806614E+00 
    1.7723384747290771E+00 
    1.8421084640819212E+00 
    1.5048888114734427E+00 
    1.6855943521238423E+00 
    1.6188012856303118E+00 
    4.3570219114597988E+00 
    4.5017275348248198E+00 
    4.5180654345347051E+00 
    6.1199848105277201E+00 
    6.0686647613346327E+00 
    6.2126912457556900E+00 
    6.6854675039311493E+00 
    6.4913116035574534E+00 
    6.6302822009295106E+00 
    5.0612083570863620E+00 
    5.1494899744405469E+00 
    5.0035662890324062E+00 
    2.9351575991032539E+00 
    2.8465339108652237E+00 
    2.9916666822492068E+00 
    2.6816179065282206E+00 
    2.5281055669757149E+00 
    2.5294959813864417E+00 
    3.5885986531642904E+00 
    3.7348491913217465E+00 
    3.7333331011621258E+00 
    3.0690481959800682E+00 
    3.0236898048733631E+00 
    3.1794693036221906E+00 
    6.2956750058060571E+00 
    6.2745156276264495E+00 
    6.1279815236809636E+00 
    6.5683925663937206E+00 
    6.7086144099969145E+00 
    6.6591264508854531E+00 
    1.7829745835600976E+00 
    1.9428956454079758E+00 
    1.9624380865915205E+00 
    7.0264155440479281E-01 
    8.6321114927340137E-01 
    8.4949527736100028E-01 
    5.9914492886069173E+00 
    5.8533316230190167E+00 
    5.9308951103919023E+00 
    2.7328364039488626E+00 
    2.6772475939265306E+00 
    2.5812684629009528E+00 
    7.2824648155529275E+00 
    7.0914318863573129E+00 
    7.1160496372290956E+00 
    3.1331727617666338E+00 
    3.1229902626092900E+00 
    3.0033601670708578E+00 
    5.4490235675235068E+00 
    5.4433300958880233E+00 
    5.2947405929195543E+00 
    2.5516505963246772E+00 
    2.5576106549260049E+00 
    2.7058688981482213E+00 
    6.8667011985311692E+00 
    6.7978205684863395E+00 
    6.9239035122242427E+00 
    1.1371970151879804E+00 
    1.1817489201597455E+00 
    1.2955468674042181E+00 
    4.6109606364069133E+00 
    4.6516955423808177E+00 
    4.5070761167047868E+00 
    1.3868009479546066E+00 
    1.3506438172675310E+00 
    1.5095877463229750E+00 
    1.6066791042499369E+00 
    1.5805823532330827E+00 
    1.4293424677747193E+00 
    5.1803939030834973E+00 
    5.3202665993585461E+00 
    5.2583460633525307E+00 
    2.8157652718764226E+00 
    2.6747436933157540E+00 
    2.7394332897537099E+00 
    5.0197834718950860E+00 
    5.1671367429978563E+00 
    5.1049171501261963E+00 
    2.9770877509241829E+00 
    2.8296764381745447E+00 
    2.8945662337973381E+00 
    5.8176773872588718E+00 
    5.9836200427507009E+00 
    5.8499189546706738E+00 
    1.7789506212444697E+00 
    1.8647802307084094E+00 
    1.9324063587818432E+00 
    2.1654074758810111E+00 
    2.0654809860564036E+00 
    2.0051486944933861E+00 
    1.4551387480883533E+00 
    1.3073072862431836E+00 
    1.3395885643711642E+00 
    1.0573568871481549E+00 
    1.2023915841235842E+00 
    1.1627761718003005E+00 
    3.3406996776963669E+00 
    3.2299371400516841E+00 
    3.4028703929768951E+00 
    7.3294828933903045E+00 
    7.3435318138207224E+00 
    7.1825604739121216E+00 
    4.8053628788619021E+00 
    4.9264759422482136E+00 
    4.9241575811402267E+00 
    2.4483991107303202E+00 
    2.3933895979529014E+00 
    2.5787841528033106E+00 
    1.1921655286322028E+00 
    1.3464180764701479E+00 
    1.3239889603603603E+00 
    2.2188905162610575E+00 
    2.3367741483709934E+00 
    2.3689364900359196E+00 
    2.5096488572580293E+00 
    2.5959657587295819E+00 
    2.4168914575588367E+00 
    2.7121194443918992E+00 
    2.7279771517180960E+00 
    2.8619821652137860E+00 
    2.9135921551632871E+00 
    2.9365861381069971E+00 
    2.7942476520862063E+00 
    1.8471924090358554E+00 
    1.6988244386401734E+00 
    1.8490018958800210E+00 
    6.0185068266720103E+00 
    6.0701211371214896E+00 
    5.9251970963019032E+00 
    3.3304626511471596E+00 
    3.4425525741034200E+00 
    3.5130058415441718E+00 
    5.3102204825559030E+00 
    5.1498693110066647E+00 
    5.2073115576013063E+00 
    6.8063275262509026E-01 
    8.3198867223750439E-01 
    8.5300362902933491E-01 
    3.7361258693665658E+00 
    3.6636100206079711E+00 
    3.5842311749137243E+00 
    4.3571074406443016E+00 
    4.2979169045011325E+00 
    4.2340022884925217E+00 
    2.5135119151843499E+00 
    2.5812799967242013E+00 
    2.4399499671982263E+00 
    5.0878334023656251E+00 
    5.0274552892039486E+00 
    4.9194292776956186E+00 
    4.7096124610374979E+00 
    4.7820327803152969E+00 
    4.8912210927192010E+00 
    7.3872181207761090E+00 
    7.3948176906008811E+00 
    7.2185937909388000E+00 
    6.0254621724217183E-01 
    7.7718814550254989E-01 
    6.1502670905104329E-01 
    4.0605863070641348E+00 
    4.1534243298567270E+00 
    4.2244171075603001E+00 
    4.4118476311989596E+00 
    4.3540136068953617E+00 
    4.2825722808522695E+00 
    6.3500545912798900E+00 
    6.2947485606726374E+00 
    6.4896360807638658E+00 
    6.4363569249563879E+00 
    6.5170791721927648E+00 
    6.3284199341767193E+00 
    5.7927497976417159E+00 
    5.6900429060568936E+00 
    5.8621569394811619E+00 
    2.2074057178023918E+00 
    2.3105780121439388E+00 
    2.1382987698674452E+00 
    4.8218431837620459E+00 
    4.9105180025058308E+00 
    4.7462451113747894E+00 
    3.1780656598530688E+00 
    3.0897887412190732E+00 
    3.2532836150185660E+00 
    4.5442558746481261E+00 
    4.4100004069271064E+00 
    4.4738188787931330E+00 
    4.7068562072867515E+00 
    4.7003117021484702E+00 
    4.8423048050180739E+00 
    6.7841566359919092E+00 
    6.8684669567943031E+00 
    6.6984510601164313E+00 
    6.6848913528243914E+00 
    6.6651853565140957E+00 
    6.8289631329518761E+00 
    3.5612379872160602E+00 
    3.3823842657597090E+00 
    3.4606408666314561E+00 
    4.4348218503474479E+00 
    4.6143647463386754E+00 
    4.5480442930705438E+00 
    2.1701555637511465E+00 
    2.3200083696846634E+00 
    2.1896650233862744E+00 
    3.2906555672871201E+00 
    3.2817506240320147E+00 
    3.1696606742901627E+00 
    5.0146443041141247E+00 
    4.9345613531653498E+00 
    5.1211688647101141E+00 
    5.1179622522131547E+00 
    5.1631973017528079E+00 
    4.9671907853946475E+00 
    5.3971025202326706E+00 
    5.2434357261377080E+00 
    5.2962961520550165E+00 
    2.6030220652311016E+00 
    2.7565359677913066E+00 
    2.7026044384332755E+00 
    5.9065032010784524E+00 
    5.8687111906041611E+00 
    6.0193951627261173E+00 
    7.4761115923311361E-01 
    7.3730370595344918E-01 
    8.6559013465219037E-01 
    6.3346383901604684E+00 
    6.4449393275306033E+00 
    6.2932059698158200E+00 
    2.3901257941514831E+00 
    2.3113615278281587E+00 
    2.2234510367722753E+00 
    6.9474623100749771E+00 
    6.7992538671552394E+00 
    6.8358875920439797E+00 
    6.3436204236011475E+00 
    6.5016111794967877E+00 
    6.3928801460639990E+00 
    1.6597965604231004E+00 
    1.5010232439933391E+00 
    1.6086491461620922E+00 
    5.4287261618907348E+00 
    5.4585472269215325E+00 
    5.5782312134757079E+00 
    2.5819264333927667E+00 
    2.5497896117446421E+00 
    2.4303559694013956E+00 
    3.4194465757692396E+00 
    3.5373696016740417E+00 
    3.3674658460494302E+00 
    4.4221750226849581E+00 
    4.5581857544144162E+00 
    4.4961300064375589E+00 
    1.6201511796018426E+00 
    1.4988213810732220E+00 
    1.4604313022203215E+00 
    2.5210268224915078E+00 
    2.3689171115461054E+00 
    2.3861502634546499E+00 
    2.6258202672923723E+00 
    2.4701264793778055E+00 
    2.5685745969590368E+00 
    6.1821445633875500E+00 
    6.1432519241666910E+00 
    6.0372040870562582E+00 
    6.5186965080209038E+00 
    6.3619937391694537E+00 
    6.5074211958987096E+00 
    6.3877007307690441E+00 
    6.5134867188508982E+00 
    6.5470518744260291E+00 
    5.4905061913394810E+00 
    5.6406756495919188E+00 
    5.6257497053101009E+00 
    1.0775845071437449E+00 
    9.9918434599161099E-01 
    1.1352574447534569E+00 
    2.4630730346828087E+00 
    2.3607341973005105E+00 
    2.3256675634410064E+00 
    5.6144270386699491E+00 
    5.6576747375228011E+00 
    5.7646073054220706E+00 
    5.8870307882604811E+00 
    5.8683765118577957E+00 
    5.7535781085618822E+00 
    2.6821653692458884E+00 
    2.7978220759014758E+00 
    2.6699544314379300E+00 
    1.2471006102746680E+00 
    1.1163476268657608E+00 
    1.2086666088961693E+00 
    6.9046105529033817E+00 
    6.9860985771487467E+00 
    7.0443399568904725E+00 
    2.1037122616206418E+00 
    1.9938136657607357E+00 
    1.9942995514937303E+00 
    1.7337961525620333E+00 
    1.8613909105031365E+00 
    1.8575937703773424E+00 
    6.6099463058067336E+00 
    6.4833689719219798E+00 
    6.5980420934129222E+00 
    1.3905522312802807E+00 
    1.5174871011569731E+00 
    1.4036259857110749E+00 
    5.6391008731921470E+00 
    5.6545674656567693E+00 
    5.5292623619606820E+00 
    2.3565952148286358E+00 
    2.3492709576590438E+00 
    2.4685330369941760E+00 
    3.6014618389259718E+00 
    3.5662673075827827E+00 
    3.4257254054089668E+00 
    4.3874380279542473E+00 
    4.4187602595055253E+00 
    4.5655460453757843E+00 
    4.7814037091802879E+00 
    4.6297635653233007E+00 
    4.6913252298950638E+00 
    9.4825703829142671E-01 
    7.9167584852519735E-01 
    8.7176836626663012E-01 
    4.5892394986817777E+00 
    4.7578034393624034E+00 
    4.7003649992259193E+00 
    3.4128296607019575E+00 
    3.2415084026493735E+00 
    3.3049375984755009E+00 
    2.4119156368308623E+00 
    2.5632357024991381E+00 
    2.4386377104223675E+00 